LAMMPS UA chain data file

24 atoms
21 bonds
20 angles
17 dihedrals

1 atom types

-10 10 xlo xhi
-10 10 ylo yhi
-10 10 zlo zhi

Masses

1 17.0

Atoms

0	0	1	1.0001	1.0001	1.0001
1	0	1	1.7089	1.2543	1.9866
2	0	1	1.4496	0.6386	0.335
3	0	1	0.9606	0.1818	1.0858
4	0	1	0.5901	1.3041	0.4839
5	0	1	0.9199	1.9076	0.1467
6	0	1	0.5301	1.7699	1.0743
7	0	1	-0.0283	2.0218	1.5283
8	1	1	2.0001	2.0001	2.0001
9	1	1	2.7721	1.2852	2.7704
10	1	1	2.2596	2.32	1.4946
11	1	1	3.1352	2.668	1.9309
12	1	1	2.5328	2.0178	1.9505
13	1	1	3.4506	2.5685	2.2968
14	1	1	2.9266	2.6362	1.8776
15	1	1	2.5691	3.1683	1.6872
16	2	1	3.0001	3.0001	3.0001
17	2	1	2.1683	2.8663	3.685
18	2	1	3.1266	2.3143	2.8526
19	2	1	2.633	2.091	3.2344
20	2	1	3.3605	2.0821	3.3334
21	2	1	4.1626	2.5284	3.355
22	2	1	2.7907	1.3533	3.2527
23	2	1	3.7234	1.8098	4.0131

Bonds

0	1	0	1
1	1	1	2
2	1	2	3
3	1	3	4
4	1	4	5
5	1	5	6
6	1	6	7
7	1	0	1
8	1	1	2
9	1	2	3
10	1	3	4
11	1	4	5
12	1	5	6
13	1	6	7
14	1	0	1
15	1	1	2
16	1	2	3
17	1	3	4
18	1	4	5
19	1	5	6
20	1	6	7

Angles

0	0	1	1	2
1	1	1	2	3
2	2	1	3	4
3	3	1	4	5
4	4	1	5	6
5	5	1	6	7
6	8	1	9	10
7	9	1	10	11
8	10	1	11	12
9	11	1	12	13
10	12	1	13	14
11	13	1	14	15
12	14	1	15	16
13	15	1	16	17
14	16	1	17	18
15	17	1	18	19
16	18	1	19	20
17	19	1	20	21
18	20	1	21	22
19	21	1	22	23

Dihedrals

0	1	0	1	2	3
1	1	1	2	3	4
2	1	2	3	4	5
3	1	3	4	5	6
4	1	4	5	6	7
5	1	8	9	10	11
6	1	9	10	11	12
7	1	10	11	12	13
8	1	11	12	13	14
9	1	12	13	14	15
10	1	13	14	15	16
11	1	15	16	17	18
12	1	16	17	18	19
13	1	17	18	19	20
14	1	18	19	20	21
15	1	19	20	21	22
16	1	20	21	22	23
