LAMMPS UA chain data file

384 atoms
381 bonds
380 angles
377 dihedrals

1 atom types

-10 10 xlo xhi
-10 10 ylo yhi
-10 10 zlo zhi

Masses

1 17.0

Atoms

0	0	1	1.0001	1.0001	1.0001
1	0	1	1.9967	0.1621	0.2018
2	0	1	1.9338	1.7828	0.5929
3	0	1	1.7541	1.5968	1.4101
4	0	1	1.4973	1.3004	0.4144
5	0	1	1.8986	1.3426	1.0208
6	0	1	1.0276	0.9795	0.8134
7	0	1	0.9719	1.1317	-0.0036
8	0	1	1.8061	1.689	1.1295
9	0	1	1.843	2.4085	0.9755
10	0	1	1.0215	1.754	0.2344
11	0	1	0.8742	2.2135	1.1929
12	0	1	1.6391	2.2073	1.8664
13	0	1	1.2169	1.7903	2.3944
14	0	1	2.32	2.1852	1.9909
15	0	1	1.3959	1.3495	2.3717
16	0	1	0.161	0.4166	1.6158
17	0	1	-0.4883	0.6936	0.9097
18	0	1	-0.6164	0.6361	1.3457
19	0	1	-1.352	1.3472	1.1052
20	0	1	-0.5353	-0.0388	1.2946
21	0	1	0.2441	0.6417	1.1135
22	0	1	-0.3721	0.1635	0.4796
23	0	1	0.476	-0.3754	-0.5127
24	0	1	0.0714	0.4127	2.1322
25	0	1	0.3809	0.2102	1.9511
26	0	1	0.3597	0.693	2.8866
27	0	1	0.9016	1.3172	2.7405
28	0	1	0.7158	-0.1386	2.7604
29	0	1	0.7929	0.007	3.6786
30	0	1	0.4446	-0.446	1.8732
31	0	1	0.7736	-0.0773	2.8032
32	0	1	0.4595	1.4318	1.2015
33	0	1	-0.0409	2.2213	1.708
34	0	1	0.6988	1.1302	1.4479
35	0	1	1.5294	1.7071	2.0474
36	0	1	0.7355	1.3491	0.8276
37	0	1	0.596	1.3508	1.8079
38	0	1	-0.258	2.336	0.4799
39	0	1	0.3772	2.8958	0.8297
40	0	1	0.9101	2.1128	1.3576
41	0	1	1.1203	1.1677	1.3343
42	0	1	0.7334	2.8575	0.523
43	0	1	1.2819	3.4092	1.5092
44	0	1	1.1773	1.5017	2.0165
45	0	1	0.5032	1.5586	2.9919
46	0	1	1.8431	1.7409	1.2203
47	0	1	1.2898	1.9456	2.0402
48	0	1	0.5057	1.3379	1.2637
49	0	1	0.4608	1.2133	2.0825
50	0	1	0.4741	1.7729	1.8632
51	0	1	-0.121	2.0063	2.1247
52	0	1	0.3139	1.3312	0.9693
53	0	1	-0.0207	0.4647	0.6262
54	0	1	-0.3407	1.271	1.3442
55	0	1	-0.4794	1.6265	1.1397
56	0	1	0.1335	1.4139	1.4267
57	0	1	0.8321	0.5944	1.5596
58	0	1	0.655	2.1631	2.2914
59	0	1	1.2582	1.6171	2.9493
60	0	1	0.9681	1.9567	1.0603
61	0	1	1.0849	1.519	1.8235
62	0	1	0.637	1.3978	1.4411
63	0	1	-0.3444	2.0846	1.4927
64	0	1	0.6322	1.9517	1.3208
65	0	1	-0.2078	2.5254	0.8796
66	0	1	0.1153	2.8922	1.5756
67	0	1	-0.1285	2.2999	1.0612
68	0	1	-0.2893	1.0914	1.1957
69	0	1	0.4413	0.5183	2.1097
70	0	1	-0.8568	0.1114	1.415
71	0	1	-1.3382	-0.6642	2.0867
72	0	1	0.8432	1.316	0.5695
73	0	1	1.0969	1.2492	0.1223
74	0	1	1.1895	1.5177	0.9949
75	0	1	0.9697	2.1573	1.1343
76	0	1	0.0059	1.5731	-0.3042
77	0	1	-0.5219	2.2472	-1.1786
78	0	1	-0.1573	1.08	-0.0163
79	0	1	0.5291	1.7211	-0.806
80	0	1	0.0828	1.8598	1.0525
81	0	1	0.2097	1.5564	0.2203
82	0	1	0.7655	1.3153	0.516
83	0	1	0.9796	1.4181	0.7141
84	0	1	0.618	0.9371	1.7036
85	0	1	1.3988	0.5933	1.1965
86	0	1	-0.1703	-0.0186	1.2522
87	0	1	0.3106	-0.8602	0.8317
88	0	1	0.2706	2.6811	1.8868
89	0	1	0.884	1.9418	2.1832
90	0	1	0.3704	2.8302	1.5257
91	0	1	0.053	1.9135	1.2848
92	0	1	1.0335	1.7776	2.2792
93	0	1	1.9266	1.8403	2.7878
94	0	1	0.2739	1.4499	2.4674
95	0	1	0.3187	1.4122	2.4721
96	0	1	0.9398	1.7506	0.5551
97	0	1	1.3251	2.1235	-0.106
98	0	1	0.5031	1.0917	0.5106
99	0	1	-0.0484	1.9943	-0.2291
100	0	1	1.739	2.1793	-0.0026
101	0	1	0.9741	2.4639	0.3416
102	0	1	2.7359	2.6517	-0.679
103	0	1	3.3298	2.8106	-1.1014
104	0	1	1.8922	1.8921	0.1565
105	0	1	2.6172	2.0536	0.8166
106	0	1	1.509	1.6737	-0.2448
107	0	1	2.0057	1.7866	-0.1044
108	0	1	1.7464	1.5078	0.7154
109	0	1	2.2032	1.3829	1.3865
110	0	1	1.217	1.4968	0.7154
111	0	1	1.6827	2.3681	0.7727
112	0	1	0.5912	2.4322	0.2947
113	0	1	0.4102	3.068	1.1343
114	0	1	-0.3429	2.8142	0.2074
115	0	1	-0.7518	1.8458	-0.3751
116	0	1	0.5024	2.5033	-0.0146
117	0	1	0.7397	2.794	-0.8255
118	0	1	-0.4538	2.9939	0.3
119	0	1	-1.3321	3.2926	-0.5483
120	0	1	1.4212	1.7209	-0.3556
121	0	1	1.635	1.5861	-1.2367
122	0	1	1.5681	2.3942	0.4119
123	0	1	1.2373	1.5291	-0.3401
124	0	1	2.3704	1.9664	-1.3199
125	0	1	2.1094	2.2049	-2.0412
126	0	1	1.6038	2.8301	-2.0006
127	0	1	2.1353	2.2736	-2.4524
128	1	1	2.0001	2.0001	2.0001
129	1	1	1.9253	1.2754	1.3033
130	1	1	1.2727	1.7396	2.33
131	1	1	1.6626	2.5394	2.0672
132	1	1	2.0796	2.42	2.9853
133	1	1	2.7553	3.3215	2.6755
134	1	1	2.8705	2.1407	2.4941
135	1	1	3.8134	1.4897	2.6506
136	1	1	2.896	1.1914	1.0754
137	1	1	3.2457	0.2402	1.7777
138	1	1	2.1523	1.14	1.9926
139	1	1	3.0739	1.7751	1.8488
140	1	1	3.112	2.0487	1.1479
141	1	1	3.2662	1.6768	0.1502
142	1	1	3.7954	2.7692	0.5831
143	1	1	3.5396	3.5107	-0.0822
144	1	1	1.0273	2.4607	2.7755
145	1	1	1.0809	1.8434	2.718
146	1	1	1.2624	1.9498	2.7379
147	1	1	1.2347	2.1164	2.1845
148	1	1	0.8986	2.8756	3.3264
149	1	1	1.2161	3.0971	3.2876
150	1	1	0.8611	2.5807	3.9174
151	1	1	1.5692	3.2942	3.5704
152	1	1	0.7513	3.0157	3.3089
153	1	1	1.0534	3.3376	3.8181
154	1	1	0.5545	3.1919	3.5425
155	1	1	-0.221	2.8871	3.885
156	1	1	0.3135	3.5824	2.8514
157	1	1	0.7132	2.8965	2.2595
158	1	1	1.3095	2.97	2.7595
159	1	1	1.4536	3.9638	3.2778
160	1	1	2.0132	1.2954	1.0101
161	1	1	1.2039	1.9588	0.7754
162	1	1	1.861	1.2824	0.9085
163	1	1	1.3844	0.7861	0.8733
164	1	1	1.3842	1.1325	1.2346
165	1	1	0.6043	0.8029	1.3853
166	1	1	0.9329	0.5756	1.7483
167	1	1	1.8168	0.0308	2.5238
168	1	1	1.7126	1.7901	1.2129
169	1	1	2.2158	1.2738	1.8138
170	1	1	0.8869	1.3025	1.0308
171	1	1	0.6748	1.3229	0.8312
172	1	1	1.8155	1.8938	0.2516
173	1	1	1.9109	1.0219	0.9654
174	1	1	2.2116	1.0888	-0.0524
175	1	1	2.2261	1.8635	-0.4551
176	1	1	2.8169	0.7145	0.5055
177	1	1	3.3967	0.3085	1.3316
178	1	1	2.9559	0.2058	-0.1267
179	1	1	2.2645	0.3446	-1.0155
180	1	1	3.7938	1.0816	0.0684
181	1	1	4.7778	1.6301	-0.9163
182	1	1	4.5791	1.5088	0.2615
183	1	1	5.0093	1.8799	0.4074
184	1	1	2.395	-0.1822	0.0433
185	1	1	2.457	0.533	0.5371
186	1	1	2.8542	0.7403	0.7183
187	1	1	2.6655	0.1276	0.5154
188	1	1	3.1838	-0.4969	0.3926
189	1	1	3.1689	-0.8838	1.3016
190	1	1	2.5654	-0.5229	1.3797
191	1	1	3.3953	0.419	1.6706
192	1	1	2.2062	2.4691	1.8972
193	1	1	2.4335	2.3506	1.4955
194	1	1	1.6161	1.6043	1.2577
195	1	1	1.3155	1.9854	1.9525
196	1	1	1.6247	3.2401	2.7318
197	1	1	2.5116	2.2472	2.46
198	1	1	2.0398	4.2334	2.0733
199	1	1	2.8337	4.3161	1.3648
200	1	1	1.9813	2.4375	2.5494
201	1	1	2.5631	1.4532	1.936
202	1	1	1.0226	3.1387	1.6095
203	1	1	0.7064	3.1448	2.3616
204	1	1	2.4008	2.8343	3.319
205	1	1	2.5045	3.6895	3.0654
206	1	1	2.3872	3.4336	2.4261
207	1	1	1.7565	2.9721	2.1785
208	1	1	1.7888	2.2409	2.5025
209	1	1	2.1851	2.3476	3.2225
210	1	1	0.8218	2.7987	2.0951
211	1	1	0.2024	2.2847	1.4454
212	1	1	1.983	1.4456	2.8134
213	1	1	1.6357	1.0092	2.9864
214	1	1	2.8202	1.3635	3.8039
215	1	1	3.4224	2.0468	4.6827
216	1	1	2.3641	2.3145	2.5885
217	1	1	1.5138	2.1486	2.2766
218	1	1	2.6628	1.9546	3.0924
219	1	1	1.8202	2.8825	2.4743
220	1	1	1.722	2.9369	3.0651
221	1	1	1.5777	3.2826	2.5398
222	1	1	1.3153	3.1599	3.4506
223	1	1	1.9706	3.9754	2.8621
224	1	1	2.4586	2.1937	1.5981
225	1	1	1.7749	1.4615	2.1319
226	1	1	1.5921	2.1204	0.935
227	1	1	2.2211	2.6985	0.93
228	1	1	1.6027	2.1303	2.3342
229	1	1	0.6381	3.1277	2.5717
230	1	1	1.7157	3.1219	2.7232
231	1	1	1.1748	3.8992	2.9411
232	1	1	2.8444	2.62	2.0406
233	1	1	2.8389	1.9339	2.5349
234	1	1	2.7514	1.7126	2.7652
235	1	1	1.9422	0.9989	3.3867
236	1	1	3.427	3.558	2.9095
237	1	1	2.7471	3.2867	3.4364
238	1	1	4.2245	2.9284	2.2458
239	1	1	4.7845	2.8985	1.6181
240	1	1	2.4984	1.4924	1.3854
241	1	1	1.6102	0.7095	1.4469
242	1	1	3.1135	0.9112	1.4057
243	1	1	2.5633	1.739	1.1387
244	1	1	2.4946	1.394	1.0803
245	1	1	3.3723	0.857	1.4303
246	1	1	2.811	0.5633	1.307
247	1	1	3.1431	0.7045	1.0403
248	1	1	1.6763	2.2381	1.9807
249	1	1	2.2781	1.7374	2.8184
250	1	1	1.6314	2.4143	1.5915
251	1	1	2.5218	3.2158	1.7607
252	1	1	2.5268	1.2943	1.6448
253	1	1	1.6874	1.1843	2.3587
254	1	1	2.0691	1.8212	2.404
255	1	1	1.9677	2.5798	2.3462
256	2	1	3.0001	3.0001	3.0001
257	2	1	2.5973	3.2814	2.9914
258	2	1	3.3586	3.0801	2.4595
259	2	1	3.2522	3.8837	1.6785
260	2	1	3.5841	2.0508	2.0396
261	2	1	4.3441	1.1437	1.6299
262	2	1	3.4386	2.7566	2.9752
263	2	1	3.8574	1.9092	3.1896
264	2	1	3.8619	3.4468	3.5281
265	2	1	4.5288	3.8675	4.3602
266	2	1	4.8438	2.6942	3.9319
267	2	1	5.4815	3.5748	4.0187
268	2	1	3.1681	3.1149	3.6051
269	2	1	4.1645	2.4758	4.6041
270	2	1	2.6648	2.7035	2.8138
271	2	1	2.2774	3.0932	3.0488
272	2	1	3.7293	2.2036	2.3849
273	2	1	3.9279	1.5486	3.38
274	2	1	4.2306	1.2471	2.1712
275	2	1	3.7233	1.9166	1.719
276	2	1	4.2665	1.9388	1.5942
277	2	1	3.475	1.2465	1.6456
278	2	1	4.7529	2.457	0.747
279	2	1	4.3748	1.4844	1.0848
280	2	1	4.4492	3.0895	1.5338
281	2	1	5.2661	2.7117	0.7621
282	2	1	4.4974	3.166	2.0256
283	2	1	4.9986	3.4027	1.713
284	2	1	3.8094	3.5347	0.5927
285	2	1	4.2475	2.675	0.3975
286	2	1	3.2136	3.3372	0.2292
287	2	1	2.4707	2.8379	-0.0777
288	2	1	3.6763	2.8837	2.4005
289	2	1	3.5368	3.869	3.3563
290	2	1	4.3863	2.112	1.801
291	2	1	5.0534	1.3051	2.4412
292	2	1	2.7231	2.4512	2.7117
293	2	1	2.2774	2.1798	2.3108
294	2	1	2.4391	1.7867	3.072
295	2	1	1.9644	1.9109	3.8511
296	2	1	4.554	3.8115	3.3416
297	2	1	5.0631	4.7033	2.4042
298	2	1	3.7204	4.693	4.0331
299	2	1	4.6428	3.8775	4.8845
300	2	1	5.2122	4.4827	3.267
301	2	1	5.487	3.6536	3.5825
302	2	1	4.2574	4.5576	3.1595
303	2	1	4.2671	4.5842	4.1002
304	2	1	3.7368	2.0916	2.4643
305	2	1	3.326	2.1926	2.8844
306	2	1	3.5115	2.1897	2.7034
307	2	1	3.8654	2.5047	2.8726
308	2	1	2.7653	2.3293	2.3821
309	2	1	3.3335	2.9543	2.1296
310	2	1	2.3811	1.6739	2.0385
311	2	1	3.0348	1.6074	2.0521
312	2	1	2.96	1.5597	2.0524
313	2	1	2.7074	1.3433	2.7662
314	2	1	2.3917	2.1322	1.4195
315	2	1	2.8263	3.0973	0.8703
316	2	1	2.0545	1.0489	2.6384
317	2	1	2.4234	1.1696	2.6209
318	2	1	2.2131	1.1704	3.5028
319	2	1	2.2772	1.2343	3.661
320	2	1	3.5109	2.8099	3.9838
321	2	1	4.034	3.7251	3.6945
322	2	1	2.7592	3.6303	4.3633
323	2	1	1.8051	3.6636	5.0381
324	2	1	2.7875	2.5125	4.8656
325	2	1	3.2876	2.3108	5.2747
326	2	1	2.6661	2.4754	5.4
327	2	1	3.0932	2.6075	4.4187
328	2	1	3.9963	3.7066	4.2804
329	2	1	3.9167	3.5718	4.5082
330	2	1	3.4045	4.1323	3.6194
331	2	1	4.0598	3.8599	4.0226
332	2	1	4.4513	3.1427	4.5791
333	2	1	4.0905	2.2326	4.8431
334	2	1	3.876	3.7809	4.116
335	2	1	4.4895	4.0076	3.498
336	2	1	3.6494	2.8671	4.5037
337	2	1	2.6566	2.6809	4.4591
338	2	1	2.8095	2.6049	4.8601
339	2	1	2.4903	2.4884	4.4355
340	2	1	3.3126	2.312	3.6604
341	2	1	2.5304	2.1895	3.2967
342	2	1	3.3268	2.7758	4.5372
343	2	1	4.2609	2.1698	5.1055
344	2	1	3.6037	3.574	3.5405
345	2	1	4.5344	4.5188	3.9752
346	2	1	4.2333	3.8413	3.8535
347	2	1	3.696	4.7052	4.5409
348	2	1	3.7612	4.2675	2.557
349	2	1	3.2385	4.3434	3.2515
350	2	1	3.753	3.8349	2.5271
351	2	1	3.5958	4.0296	2.4114
352	2	1	4.2419	1.9413	4.6679
353	2	1	3.9896	2.4902	4.3723
354	2	1	4.0832	2.1851	5.2376
355	2	1	5.0771	2.5923	4.9453
356	2	1	4.4512	1.9136	5.4277
357	2	1	3.9304	1.3201	6.1276
358	2	1	4.8301	1.574	6.1086
359	2	1	4.3778	1.6595	5.5716
360	2	1	4.281	1.9378	5.3557
361	2	1	5.0338	1.486	4.5387
362	2	1	5.2696	2.8138	4.9098
363	2	1	6.0777	3.237	5.0112
364	2	1	4.4043	1.4944	6.1415
365	2	1	3.4292	2.1466	6.2402
366	2	1	4.5506	2.0383	5.8587
367	2	1	3.7866	2.3241	6.7485
368	2	1	3.3613	2.1817	5.4563
369	2	1	3.0753	3.0024	5.2958
370	2	1	2.984	2.8326	6.3452
371	2	1	2.1747	2.2778	5.7099
372	2	1	2.9553	1.9561	6.1552
373	2	1	2.4628	1.7598	5.3982
374	2	1	2.6616	1.9874	5.6279
375	2	1	2.901	1.972	5.7771
376	2	1	4.2895	1.9434	4.6586
377	2	1	4.3841	1.5504	4.3644
378	2	1	3.8353	1.9873	4.9933
379	2	1	4.4863	2.2979	5.7916
380	2	1	5.1542	2.5026	3.8265
381	2	1	6.0632	2.2999	2.961
382	2	1	6.0104	2.0734	3.5503
383	2	1	6.7321	2.7572	4.241

Bonds

0	1	0	1
1	1	1	2
2	1	2	3
3	1	3	4
4	1	4	5
5	1	5	6
6	1	6	7
7	1	7	8
8	1	8	9
9	1	9	10
10	1	10	11
11	1	11	12
12	1	12	13
13	1	13	14
14	1	14	15
15	1	15	16
16	1	16	17
17	1	17	18
18	1	18	19
19	1	19	20
20	1	20	21
21	1	21	22
22	1	22	23
23	1	23	24
24	1	24	25
25	1	25	26
26	1	26	27
27	1	27	28
28	1	28	29
29	1	29	30
30	1	30	31
31	1	31	32
32	1	32	33
33	1	33	34
34	1	34	35
35	1	35	36
36	1	36	37
37	1	37	38
38	1	38	39
39	1	39	40
40	1	40	41
41	1	41	42
42	1	42	43
43	1	43	44
44	1	44	45
45	1	45	46
46	1	46	47
47	1	47	48
48	1	48	49
49	1	49	50
50	1	50	51
51	1	51	52
52	1	52	53
53	1	53	54
54	1	54	55
55	1	55	56
56	1	56	57
57	1	57	58
58	1	58	59
59	1	59	60
60	1	60	61
61	1	61	62
62	1	62	63
63	1	63	64
64	1	64	65
65	1	65	66
66	1	66	67
67	1	67	68
68	1	68	69
69	1	69	70
70	1	70	71
71	1	71	72
72	1	72	73
73	1	73	74
74	1	74	75
75	1	75	76
76	1	76	77
77	1	77	78
78	1	78	79
79	1	79	80
80	1	80	81
81	1	81	82
82	1	82	83
83	1	83	84
84	1	84	85
85	1	85	86
86	1	86	87
87	1	87	88
88	1	88	89
89	1	89	90
90	1	90	91
91	1	91	92
92	1	92	93
93	1	93	94
94	1	94	95
95	1	95	96
96	1	96	97
97	1	97	98
98	1	98	99
99	1	99	100
100	1	100	101
101	1	101	102
102	1	102	103
103	1	103	104
104	1	104	105
105	1	105	106
106	1	106	107
107	1	107	108
108	1	108	109
109	1	109	110
110	1	110	111
111	1	111	112
112	1	112	113
113	1	113	114
114	1	114	115
115	1	115	116
116	1	116	117
117	1	117	118
118	1	118	119
119	1	119	120
120	1	120	121
121	1	121	122
122	1	122	123
123	1	123	124
124	1	124	125
125	1	125	126
126	1	126	127
127	1	0	1
128	1	1	2
129	1	2	3
130	1	3	4
131	1	4	5
132	1	5	6
133	1	6	7
134	1	7	8
135	1	8	9
136	1	9	10
137	1	10	11
138	1	11	12
139	1	12	13
140	1	13	14
141	1	14	15
142	1	15	16
143	1	16	17
144	1	17	18
145	1	18	19
146	1	19	20
147	1	20	21
148	1	21	22
149	1	22	23
150	1	23	24
151	1	24	25
152	1	25	26
153	1	26	27
154	1	27	28
155	1	28	29
156	1	29	30
157	1	30	31
158	1	31	32
159	1	32	33
160	1	33	34
161	1	34	35
162	1	35	36
163	1	36	37
164	1	37	38
165	1	38	39
166	1	39	40
167	1	40	41
168	1	41	42
169	1	42	43
170	1	43	44
171	1	44	45
172	1	45	46
173	1	46	47
174	1	47	48
175	1	48	49
176	1	49	50
177	1	50	51
178	1	51	52
179	1	52	53
180	1	53	54
181	1	54	55
182	1	55	56
183	1	56	57
184	1	57	58
185	1	58	59
186	1	59	60
187	1	60	61
188	1	61	62
189	1	62	63
190	1	63	64
191	1	64	65
192	1	65	66
193	1	66	67
194	1	67	68
195	1	68	69
196	1	69	70
197	1	70	71
198	1	71	72
199	1	72	73
200	1	73	74
201	1	74	75
202	1	75	76
203	1	76	77
204	1	77	78
205	1	78	79
206	1	79	80
207	1	80	81
208	1	81	82
209	1	82	83
210	1	83	84
211	1	84	85
212	1	85	86
213	1	86	87
214	1	87	88
215	1	88	89
216	1	89	90
217	1	90	91
218	1	91	92
219	1	92	93
220	1	93	94
221	1	94	95
222	1	95	96
223	1	96	97
224	1	97	98
225	1	98	99
226	1	99	100
227	1	100	101
228	1	101	102
229	1	102	103
230	1	103	104
231	1	104	105
232	1	105	106
233	1	106	107
234	1	107	108
235	1	108	109
236	1	109	110
237	1	110	111
238	1	111	112
239	1	112	113
240	1	113	114
241	1	114	115
242	1	115	116
243	1	116	117
244	1	117	118
245	1	118	119
246	1	119	120
247	1	120	121
248	1	121	122
249	1	122	123
250	1	123	124
251	1	124	125
252	1	125	126
253	1	126	127
254	1	0	1
255	1	1	2
256	1	2	3
257	1	3	4
258	1	4	5
259	1	5	6
260	1	6	7
261	1	7	8
262	1	8	9
263	1	9	10
264	1	10	11
265	1	11	12
266	1	12	13
267	1	13	14
268	1	14	15
269	1	15	16
270	1	16	17
271	1	17	18
272	1	18	19
273	1	19	20
274	1	20	21
275	1	21	22
276	1	22	23
277	1	23	24
278	1	24	25
279	1	25	26
280	1	26	27
281	1	27	28
282	1	28	29
283	1	29	30
284	1	30	31
285	1	31	32
286	1	32	33
287	1	33	34
288	1	34	35
289	1	35	36
290	1	36	37
291	1	37	38
292	1	38	39
293	1	39	40
294	1	40	41
295	1	41	42
296	1	42	43
297	1	43	44
298	1	44	45
299	1	45	46
300	1	46	47
301	1	47	48
302	1	48	49
303	1	49	50
304	1	50	51
305	1	51	52
306	1	52	53
307	1	53	54
308	1	54	55
309	1	55	56
310	1	56	57
311	1	57	58
312	1	58	59
313	1	59	60
314	1	60	61
315	1	61	62
316	1	62	63
317	1	63	64
318	1	64	65
319	1	65	66
320	1	66	67
321	1	67	68
322	1	68	69
323	1	69	70
324	1	70	71
325	1	71	72
326	1	72	73
327	1	73	74
328	1	74	75
329	1	75	76
330	1	76	77
331	1	77	78
332	1	78	79
333	1	79	80
334	1	80	81
335	1	81	82
336	1	82	83
337	1	83	84
338	1	84	85
339	1	85	86
340	1	86	87
341	1	87	88
342	1	88	89
343	1	89	90
344	1	90	91
345	1	91	92
346	1	92	93
347	1	93	94
348	1	94	95
349	1	95	96
350	1	96	97
351	1	97	98
352	1	98	99
353	1	99	100
354	1	100	101
355	1	101	102
356	1	102	103
357	1	103	104
358	1	104	105
359	1	105	106
360	1	106	107
361	1	107	108
362	1	108	109
363	1	109	110
364	1	110	111
365	1	111	112
366	1	112	113
367	1	113	114
368	1	114	115
369	1	115	116
370	1	116	117
371	1	117	118
372	1	118	119
373	1	119	120
374	1	120	121
375	1	121	122
376	1	122	123
377	1	123	124
378	1	124	125
379	1	125	126
380	1	126	127

Angles

0	0	1	1	2
1	1	1	2	3
2	2	1	3	4
3	3	1	4	5
4	4	1	5	6
5	5	1	6	7
6	6	1	7	8
7	7	1	8	9
8	8	1	9	10
9	9	1	10	11
10	10	1	11	12
11	11	1	12	13
12	12	1	13	14
13	13	1	14	15
14	14	1	15	16
15	15	1	16	17
16	16	1	17	18
17	17	1	18	19
18	18	1	19	20
19	19	1	20	21
20	20	1	21	22
21	21	1	22	23
22	22	1	23	24
23	23	1	24	25
24	24	1	25	26
25	25	1	26	27
26	26	1	27	28
27	27	1	28	29
28	28	1	29	30
29	29	1	30	31
30	30	1	31	32
31	31	1	32	33
32	32	1	33	34
33	33	1	34	35
34	34	1	35	36
35	35	1	36	37
36	36	1	37	38
37	37	1	38	39
38	38	1	39	40
39	39	1	40	41
40	40	1	41	42
41	41	1	42	43
42	42	1	43	44
43	43	1	44	45
44	44	1	45	46
45	45	1	46	47
46	46	1	47	48
47	47	1	48	49
48	48	1	49	50
49	49	1	50	51
50	50	1	51	52
51	51	1	52	53
52	52	1	53	54
53	53	1	54	55
54	54	1	55	56
55	55	1	56	57
56	56	1	57	58
57	57	1	58	59
58	58	1	59	60
59	59	1	60	61
60	60	1	61	62
61	61	1	62	63
62	62	1	63	64
63	63	1	64	65
64	64	1	65	66
65	65	1	66	67
66	66	1	67	68
67	67	1	68	69
68	68	1	69	70
69	69	1	70	71
70	70	1	71	72
71	71	1	72	73
72	72	1	73	74
73	73	1	74	75
74	74	1	75	76
75	75	1	76	77
76	76	1	77	78
77	77	1	78	79
78	78	1	79	80
79	79	1	80	81
80	80	1	81	82
81	81	1	82	83
82	82	1	83	84
83	83	1	84	85
84	84	1	85	86
85	85	1	86	87
86	86	1	87	88
87	87	1	88	89
88	88	1	89	90
89	89	1	90	91
90	90	1	91	92
91	91	1	92	93
92	92	1	93	94
93	93	1	94	95
94	94	1	95	96
95	95	1	96	97
96	96	1	97	98
97	97	1	98	99
98	98	1	99	100
99	99	1	100	101
100	100	1	101	102
101	101	1	102	103
102	102	1	103	104
103	103	1	104	105
104	104	1	105	106
105	105	1	106	107
106	106	1	107	108
107	107	1	108	109
108	108	1	109	110
109	109	1	110	111
110	110	1	111	112
111	111	1	112	113
112	112	1	113	114
113	113	1	114	115
114	114	1	115	116
115	115	1	116	117
116	116	1	117	118
117	117	1	118	119
118	118	1	119	120
119	119	1	120	121
120	120	1	121	122
121	121	1	122	123
122	122	1	123	124
123	123	1	124	125
124	124	1	125	126
125	125	1	126	127
126	128	1	129	130
127	129	1	130	131
128	130	1	131	132
129	131	1	132	133
130	132	1	133	134
131	133	1	134	135
132	134	1	135	136
133	135	1	136	137
134	136	1	137	138
135	137	1	138	139
136	138	1	139	140
137	139	1	140	141
138	140	1	141	142
139	141	1	142	143
140	142	1	143	144
141	143	1	144	145
142	144	1	145	146
143	145	1	146	147
144	146	1	147	148
145	147	1	148	149
146	148	1	149	150
147	149	1	150	151
148	150	1	151	152
149	151	1	152	153
150	152	1	153	154
151	153	1	154	155
152	154	1	155	156
153	155	1	156	157
154	156	1	157	158
155	157	1	158	159
156	158	1	159	160
157	159	1	160	161
158	160	1	161	162
159	161	1	162	163
160	162	1	163	164
161	163	1	164	165
162	164	1	165	166
163	165	1	166	167
164	166	1	167	168
165	167	1	168	169
166	168	1	169	170
167	169	1	170	171
168	170	1	171	172
169	171	1	172	173
170	172	1	173	174
171	173	1	174	175
172	174	1	175	176
173	175	1	176	177
174	176	1	177	178
175	177	1	178	179
176	178	1	179	180
177	179	1	180	181
178	180	1	181	182
179	181	1	182	183
180	182	1	183	184
181	183	1	184	185
182	184	1	185	186
183	185	1	186	187
184	186	1	187	188
185	187	1	188	189
186	188	1	189	190
187	189	1	190	191
188	190	1	191	192
189	191	1	192	193
190	192	1	193	194
191	193	1	194	195
192	194	1	195	196
193	195	1	196	197
194	196	1	197	198
195	197	1	198	199
196	198	1	199	200
197	199	1	200	201
198	200	1	201	202
199	201	1	202	203
200	202	1	203	204
201	203	1	204	205
202	204	1	205	206
203	205	1	206	207
204	206	1	207	208
205	207	1	208	209
206	208	1	209	210
207	209	1	210	211
208	210	1	211	212
209	211	1	212	213
210	212	1	213	214
211	213	1	214	215
212	214	1	215	216
213	215	1	216	217
214	216	1	217	218
215	217	1	218	219
216	218	1	219	220
217	219	1	220	221
218	220	1	221	222
219	221	1	222	223
220	222	1	223	224
221	223	1	224	225
222	224	1	225	226
223	225	1	226	227
224	226	1	227	228
225	227	1	228	229
226	228	1	229	230
227	229	1	230	231
228	230	1	231	232
229	231	1	232	233
230	232	1	233	234
231	233	1	234	235
232	234	1	235	236
233	235	1	236	237
234	236	1	237	238
235	237	1	238	239
236	238	1	239	240
237	239	1	240	241
238	240	1	241	242
239	241	1	242	243
240	242	1	243	244
241	243	1	244	245
242	244	1	245	246
243	245	1	246	247
244	246	1	247	248
245	247	1	248	249
246	248	1	249	250
247	249	1	250	251
248	250	1	251	252
249	251	1	252	253
250	252	1	253	254
251	253	1	254	255
252	254	1	255	256
253	255	1	256	257
254	256	1	257	258
255	257	1	258	259
256	258	1	259	260
257	259	1	260	261
258	260	1	261	262
259	261	1	262	263
260	262	1	263	264
261	263	1	264	265
262	264	1	265	266
263	265	1	266	267
264	266	1	267	268
265	267	1	268	269
266	268	1	269	270
267	269	1	270	271
268	270	1	271	272
269	271	1	272	273
270	272	1	273	274
271	273	1	274	275
272	274	1	275	276
273	275	1	276	277
274	276	1	277	278
275	277	1	278	279
276	278	1	279	280
277	279	1	280	281
278	280	1	281	282
279	281	1	282	283
280	282	1	283	284
281	283	1	284	285
282	284	1	285	286
283	285	1	286	287
284	286	1	287	288
285	287	1	288	289
286	288	1	289	290
287	289	1	290	291
288	290	1	291	292
289	291	1	292	293
290	292	1	293	294
291	293	1	294	295
292	294	1	295	296
293	295	1	296	297
294	296	1	297	298
295	297	1	298	299
296	298	1	299	300
297	299	1	300	301
298	300	1	301	302
299	301	1	302	303
300	302	1	303	304
301	303	1	304	305
302	304	1	305	306
303	305	1	306	307
304	306	1	307	308
305	307	1	308	309
306	308	1	309	310
307	309	1	310	311
308	310	1	311	312
309	311	1	312	313
310	312	1	313	314
311	313	1	314	315
312	314	1	315	316
313	315	1	316	317
314	316	1	317	318
315	317	1	318	319
316	318	1	319	320
317	319	1	320	321
318	320	1	321	322
319	321	1	322	323
320	322	1	323	324
321	323	1	324	325
322	324	1	325	326
323	325	1	326	327
324	326	1	327	328
325	327	1	328	329
326	328	1	329	330
327	329	1	330	331
328	330	1	331	332
329	331	1	332	333
330	332	1	333	334
331	333	1	334	335
332	334	1	335	336
333	335	1	336	337
334	336	1	337	338
335	337	1	338	339
336	338	1	339	340
337	339	1	340	341
338	340	1	341	342
339	341	1	342	343
340	342	1	343	344
341	343	1	344	345
342	344	1	345	346
343	345	1	346	347
344	346	1	347	348
345	347	1	348	349
346	348	1	349	350
347	349	1	350	351
348	350	1	351	352
349	351	1	352	353
350	352	1	353	354
351	353	1	354	355
352	354	1	355	356
353	355	1	356	357
354	356	1	357	358
355	357	1	358	359
356	358	1	359	360
357	359	1	360	361
358	360	1	361	362
359	361	1	362	363
360	362	1	363	364
361	363	1	364	365
362	364	1	365	366
363	365	1	366	367
364	366	1	367	368
365	367	1	368	369
366	368	1	369	370
367	369	1	370	371
368	370	1	371	372
369	371	1	372	373
370	372	1	373	374
371	373	1	374	375
372	374	1	375	376
373	375	1	376	377
374	376	1	377	378
375	377	1	378	379
376	378	1	379	380
377	379	1	380	381
378	380	1	381	382
379	381	1	382	383

Dihedrals

0	1	0	1	2	3
1	1	1	2	3	4
2	1	2	3	4	5
3	1	3	4	5	6
4	1	4	5	6	7
5	1	5	6	7	8
6	1	6	7	8	9
7	1	7	8	9	10
8	1	8	9	10	11
9	1	9	10	11	12
10	1	10	11	12	13
11	1	11	12	13	14
12	1	12	13	14	15
13	1	13	14	15	16
14	1	14	15	16	17
15	1	15	16	17	18
16	1	16	17	18	19
17	1	17	18	19	20
18	1	18	19	20	21
19	1	19	20	21	22
20	1	20	21	22	23
21	1	21	22	23	24
22	1	22	23	24	25
23	1	23	24	25	26
24	1	24	25	26	27
25	1	25	26	27	28
26	1	26	27	28	29
27	1	27	28	29	30
28	1	28	29	30	31
29	1	29	30	31	32
30	1	30	31	32	33
31	1	31	32	33	34
32	1	32	33	34	35
33	1	33	34	35	36
34	1	34	35	36	37
35	1	35	36	37	38
36	1	36	37	38	39
37	1	37	38	39	40
38	1	38	39	40	41
39	1	39	40	41	42
40	1	40	41	42	43
41	1	41	42	43	44
42	1	42	43	44	45
43	1	43	44	45	46
44	1	44	45	46	47
45	1	45	46	47	48
46	1	46	47	48	49
47	1	47	48	49	50
48	1	48	49	50	51
49	1	49	50	51	52
50	1	50	51	52	53
51	1	51	52	53	54
52	1	52	53	54	55
53	1	53	54	55	56
54	1	54	55	56	57
55	1	55	56	57	58
56	1	56	57	58	59
57	1	57	58	59	60
58	1	58	59	60	61
59	1	59	60	61	62
60	1	60	61	62	63
61	1	61	62	63	64
62	1	62	63	64	65
63	1	63	64	65	66
64	1	64	65	66	67
65	1	65	66	67	68
66	1	66	67	68	69
67	1	67	68	69	70
68	1	68	69	70	71
69	1	69	70	71	72
70	1	70	71	72	73
71	1	71	72	73	74
72	1	72	73	74	75
73	1	73	74	75	76
74	1	74	75	76	77
75	1	75	76	77	78
76	1	76	77	78	79
77	1	77	78	79	80
78	1	78	79	80	81
79	1	79	80	81	82
80	1	80	81	82	83
81	1	81	82	83	84
82	1	82	83	84	85
83	1	83	84	85	86
84	1	84	85	86	87
85	1	85	86	87	88
86	1	86	87	88	89
87	1	87	88	89	90
88	1	88	89	90	91
89	1	89	90	91	92
90	1	90	91	92	93
91	1	91	92	93	94
92	1	92	93	94	95
93	1	93	94	95	96
94	1	94	95	96	97
95	1	95	96	97	98
96	1	96	97	98	99
97	1	97	98	99	100
98	1	98	99	100	101
99	1	99	100	101	102
100	1	100	101	102	103
101	1	101	102	103	104
102	1	102	103	104	105
103	1	103	104	105	106
104	1	104	105	106	107
105	1	105	106	107	108
106	1	106	107	108	109
107	1	107	108	109	110
108	1	108	109	110	111
109	1	109	110	111	112
110	1	110	111	112	113
111	1	111	112	113	114
112	1	112	113	114	115
113	1	113	114	115	116
114	1	114	115	116	117
115	1	115	116	117	118
116	1	116	117	118	119
117	1	117	118	119	120
118	1	118	119	120	121
119	1	119	120	121	122
120	1	120	121	122	123
121	1	121	122	123	124
122	1	122	123	124	125
123	1	123	124	125	126
124	1	124	125	126	127
125	1	128	129	130	131
126	1	129	130	131	132
127	1	130	131	132	133
128	1	131	132	133	134
129	1	132	133	134	135
130	1	133	134	135	136
131	1	134	135	136	137
132	1	135	136	137	138
133	1	136	137	138	139
134	1	137	138	139	140
135	1	138	139	140	141
136	1	139	140	141	142
137	1	140	141	142	143
138	1	141	142	143	144
139	1	142	143	144	145
140	1	143	144	145	146
141	1	144	145	146	147
142	1	145	146	147	148
143	1	146	147	148	149
144	1	147	148	149	150
145	1	148	149	150	151
146	1	149	150	151	152
147	1	150	151	152	153
148	1	151	152	153	154
149	1	152	153	154	155
150	1	153	154	155	156
151	1	154	155	156	157
152	1	155	156	157	158
153	1	156	157	158	159
154	1	157	158	159	160
155	1	158	159	160	161
156	1	159	160	161	162
157	1	160	161	162	163
158	1	161	162	163	164
159	1	162	163	164	165
160	1	163	164	165	166
161	1	164	165	166	167
162	1	165	166	167	168
163	1	166	167	168	169
164	1	167	168	169	170
165	1	168	169	170	171
166	1	169	170	171	172
167	1	170	171	172	173
168	1	171	172	173	174
169	1	172	173	174	175
170	1	173	174	175	176
171	1	174	175	176	177
172	1	175	176	177	178
173	1	176	177	178	179
174	1	177	178	179	180
175	1	178	179	180	181
176	1	179	180	181	182
177	1	180	181	182	183
178	1	181	182	183	184
179	1	182	183	184	185
180	1	183	184	185	186
181	1	184	185	186	187
182	1	185	186	187	188
183	1	186	187	188	189
184	1	187	188	189	190
185	1	188	189	190	191
186	1	189	190	191	192
187	1	190	191	192	193
188	1	191	192	193	194
189	1	192	193	194	195
190	1	193	194	195	196
191	1	194	195	196	197
192	1	195	196	197	198
193	1	196	197	198	199
194	1	197	198	199	200
195	1	198	199	200	201
196	1	199	200	201	202
197	1	200	201	202	203
198	1	201	202	203	204
199	1	202	203	204	205
200	1	203	204	205	206
201	1	204	205	206	207
202	1	205	206	207	208
203	1	206	207	208	209
204	1	207	208	209	210
205	1	208	209	210	211
206	1	209	210	211	212
207	1	210	211	212	213
208	1	211	212	213	214
209	1	212	213	214	215
210	1	213	214	215	216
211	1	214	215	216	217
212	1	215	216	217	218
213	1	216	217	218	219
214	1	217	218	219	220
215	1	218	219	220	221
216	1	219	220	221	222
217	1	220	221	222	223
218	1	221	222	223	224
219	1	222	223	224	225
220	1	223	224	225	226
221	1	224	225	226	227
222	1	225	226	227	228
223	1	226	227	228	229
224	1	227	228	229	230
225	1	228	229	230	231
226	1	229	230	231	232
227	1	230	231	232	233
228	1	231	232	233	234
229	1	232	233	234	235
230	1	233	234	235	236
231	1	234	235	236	237
232	1	235	236	237	238
233	1	236	237	238	239
234	1	237	238	239	240
235	1	238	239	240	241
236	1	239	240	241	242
237	1	240	241	242	243
238	1	241	242	243	244
239	1	242	243	244	245
240	1	243	244	245	246
241	1	244	245	246	247
242	1	245	246	247	248
243	1	246	247	248	249
244	1	247	248	249	250
245	1	248	249	250	251
246	1	249	250	251	252
247	1	250	251	252	253
248	1	251	252	253	254
249	1	252	253	254	255
250	1	253	254	255	256
251	1	255	256	257	258
252	1	256	257	258	259
253	1	257	258	259	260
254	1	258	259	260	261
255	1	259	260	261	262
256	1	260	261	262	263
257	1	261	262	263	264
258	1	262	263	264	265
259	1	263	264	265	266
260	1	264	265	266	267
261	1	265	266	267	268
262	1	266	267	268	269
263	1	267	268	269	270
264	1	268	269	270	271
265	1	269	270	271	272
266	1	270	271	272	273
267	1	271	272	273	274
268	1	272	273	274	275
269	1	273	274	275	276
270	1	274	275	276	277
271	1	275	276	277	278
272	1	276	277	278	279
273	1	277	278	279	280
274	1	278	279	280	281
275	1	279	280	281	282
276	1	280	281	282	283
277	1	281	282	283	284
278	1	282	283	284	285
279	1	283	284	285	286
280	1	284	285	286	287
281	1	285	286	287	288
282	1	286	287	288	289
283	1	287	288	289	290
284	1	288	289	290	291
285	1	289	290	291	292
286	1	290	291	292	293
287	1	291	292	293	294
288	1	292	293	294	295
289	1	293	294	295	296
290	1	294	295	296	297
291	1	295	296	297	298
292	1	296	297	298	299
293	1	297	298	299	300
294	1	298	299	300	301
295	1	299	300	301	302
296	1	300	301	302	303
297	1	301	302	303	304
298	1	302	303	304	305
299	1	303	304	305	306
300	1	304	305	306	307
301	1	305	306	307	308
302	1	306	307	308	309
303	1	307	308	309	310
304	1	308	309	310	311
305	1	309	310	311	312
306	1	310	311	312	313
307	1	311	312	313	314
308	1	312	313	314	315
309	1	313	314	315	316
310	1	314	315	316	317
311	1	315	316	317	318
312	1	316	317	318	319
313	1	317	318	319	320
314	1	318	319	320	321
315	1	319	320	321	322
316	1	320	321	322	323
317	1	321	322	323	324
318	1	322	323	324	325
319	1	323	324	325	326
320	1	324	325	326	327
321	1	325	326	327	328
322	1	326	327	328	329
323	1	327	328	329	330
324	1	328	329	330	331
325	1	329	330	331	332
326	1	330	331	332	333
327	1	331	332	333	334
328	1	332	333	334	335
329	1	333	334	335	336
330	1	334	335	336	337
331	1	335	336	337	338
332	1	336	337	338	339
333	1	337	338	339	340
334	1	338	339	340	341
335	1	339	340	341	342
336	1	340	341	342	343
337	1	341	342	343	344
338	1	342	343	344	345
339	1	343	344	345	346
340	1	344	345	346	347
341	1	345	346	347	348
342	1	346	347	348	349
343	1	347	348	349	350
344	1	348	349	350	351
345	1	349	350	351	352
346	1	350	351	352	353
347	1	351	352	353	354
348	1	352	353	354	355
349	1	353	354	355	356
350	1	354	355	356	357
351	1	355	356	357	358
352	1	356	357	358	359
353	1	357	358	359	360
354	1	358	359	360	361
355	1	359	360	361	362
356	1	360	361	362	363
357	1	361	362	363	364
358	1	362	363	364	365
359	1	363	364	365	366
360	1	364	365	366	367
361	1	365	366	367	368
362	1	366	367	368	369
363	1	367	368	369	370
364	1	368	369	370	371
365	1	369	370	371	372
366	1	370	371	372	373
367	1	371	372	373	374
368	1	372	373	374	375
369	1	373	374	375	376
370	1	374	375	376	377
371	1	375	376	377	378
372	1	376	377	378	379
373	1	377	378	379	380
374	1	378	379	380	381
375	1	379	380	381	382
376	1	380	381	382	383
