LAMMPS UA chain data file

384 atoms
381 bonds
380 angles
377 dihedrals

1 atom types

-10 10 xlo xhi
-10 10 ylo yhi
-10 10 zlo zhi

Masses

1 17.0

Atoms

0	0	1	1.0001	1.0001	1.0001
1	0	1	0.2725	0.6256	1.8759
2	0	1	1.7987	1.951	1.7173
3	0	1	2.734	1.6092	0.9202
4	0	1	0.643	1.3351	0.7022
5	0	1	-0.0498	2.0653	-0.2565
6	0	1	1.0177	0.7584	1.3985
7	0	1	0.3402	0.675	0.4636
8	0	1	1.8934	1.2171	0.2915
9	0	1	2.1479	2.1919	-0.363
10	0	1	1.7044	1.264	1.1517
11	0	1	1.7751	0.5005	0.6309
12	0	1	2.6427	0.3554	-0.0123
13	0	1	3.6159	1.3216	0.9529
14	0	1	2.1848	-0.6408	-0.9102
15	0	1	1.1997	-1.0474	-0.8412
16	0	1	1.8759	0.9274	1.2232
17	0	1	0.9618	1.705	1.5896
18	0	1	1.8922	-0.0286	1.762
19	0	1	1.6147	-0.1527	2.5012
20	0	1	1.3115	0.5922	0.6574
21	0	1	1.8866	1.3815	1.4129
22	0	1	1.4995	0.9874	0.7893
23	0	1	1.21	0.4333	1.5128
24	0	1	2.5654	1.5714	2.1615
25	0	1	2.599	1.6747	1.7411
26	0	1	2.5103	1.1091	2.1268
27	0	1	1.9664	1.0385	1.6441
28	0	1	2.0046	2.5148	1.788
29	0	1	1.8671	3.0955	1.4417
30	0	1	2.7035	3.1913	1.2117
31	0	1	2.2583	4.1742	1.8879
32	0	1	0.4397	1.4051	1.1049
33	0	1	-0.2691	2.3377	0.4081
34	0	1	1.4257	1.6956	1.3071
35	0	1	2.2672	1.9849	1.9328
36	0	1	0.9013	2.2649	0.8675
37	0	1	0.0384	2.8307	0.6119
38	0	1	1.8092	1.8889	0.609
39	0	1	2.0621	1.894	0.5025
40	0	1	0.8229	1.8866	2.0135
41	0	1	0.1175	2.2558	2.9237
42	0	1	1.0709	2.812	1.3705
43	0	1	2.0011	2.7304	1.189
44	0	1	0.8195	1.5278	2.5787
45	0	1	1.1785	2.2099	1.6796
46	0	1	0.5675	1.3481	3.0565
47	0	1	0.3259	1.0384	3.2372
48	0	1	-0.5038	1.378	1.2657
49	0	1	-0.642	1.2783	1.8373
50	0	1	-0.3866	0.3795	0.9925
51	0	1	0.5598	0.1921	1.9832
52	0	1	-0.274	1.0375	1.0296
53	0	1	-0.2569	0.9527	0.2754
54	0	1	-0.8289	0.8768	1.8437
55	0	1	-0.5483	-0.0878	1.5535
56	0	1	0.1343	0.4858	1.4092
57	0	1	-0.6299	0.2429	2.1319
58	0	1	-0.6386	1.173	0.9355
59	0	1	-1.4079	1.02	1.3756
60	0	1	0.4482	0.1002	0.692
61	0	1	1.1191	-0.454	1.5543
62	0	1	1.0604	0.4914	0.8009
63	0	1	1.7358	0.125	0.1703
64	0	1	1.5244	1.5725	1.1398
65	0	1	1.1433	1.9507	1.3817
66	0	1	1.79	2.3201	1.9018
67	0	1	2.1381	2.373	1.7816
68	0	1	1.7502	0.7032	0.3629
69	0	1	0.7542	1.1862	-0.0935
70	0	1	1.1565	0.3709	1.0288
71	0	1	0.223	-0.0464	1.8767
72	0	1	2.0191	2.4659	1.8768
73	0	1	2.2096	1.7637	0.9622
74	0	1	2.0349	3.1917	2.1876
75	0	1	2.9769	2.2149	2.1583
76	0	1	1.5197	1.6082	2.8521
77	0	1	0.555	0.7272	2.9915
78	0	1	0.9334	1.4673	2.711
79	0	1	0.8286	2.2559	3.3647
80	0	1	2.4157	1.1913	0.1649
81	0	1	1.5377	1.5065	-0.4913
82	0	1	1.4372	2.1696	0.6371
83	0	1	0.8071	2.1111	1.2273
84	0	1	3.385	1.5884	0.0947
85	0	1	3.0827	2.4786	0.1973
86	0	1	3.5716	2.3076	-0.6318
87	0	1	4.4053	1.7214	-1.189
88	0	1	2.3383	0.7089	0.9593
89	0	1	2.3164	1.6938	1.1832
90	0	1	1.8614	0.6726	1.8559
91	0	1	0.8751	1.2935	2.2651
92	0	1	1.8034	-0.222	1.7996
93	0	1	1.2632	0.0	2.0555
94	0	1	2.0726	-0.7841	1.3046
95	0	1	1.3279	-0.2653	1.8126
96	0	1	0.8219	2.0501	0.6944
97	0	1	1.6072	2.647	1.6378
98	0	1	1.3698	2.0088	1.3419
99	0	1	0.7563	1.7582	1.251
100	0	1	1.632	2.3027	1.14
101	0	1	0.7338	3.1981	1.7558
102	0	1	2.2285	3.0546	1.7874
103	0	1	2.0835	3.3546	1.9887
104	0	1	0.2278	1.9681	-0.1143
105	0	1	1.1513	2.1773	-0.9602
106	0	1	0.4951	2.9226	-0.929
107	0	1	1.3465	2.14	-0.615
108	0	1	0.2878	1.7523	0.1214
109	0	1	0.9552	2.307	-0.3835
110	0	1	0.4889	0.7556	-0.6628
111	0	1	1.0897	1.3224	-0.8332
112	0	1	0.4167	1.2677	0.4826
113	0	1	-0.5095	0.6448	-0.3549
114	0	1	0.5705	1.9379	0.8322
115	0	1	1.4302	1.761	0.9087
116	0	1	0.1477	0.784	-0.3477
117	0	1	-0.6649	0.666	-0.3143
118	0	1	0.3224	1.3633	-0.425
119	0	1	-0.2426	1.5449	0.0204
120	0	1	0.8987	0.2688	1.2507
121	0	1	1.2448	0.1092	1.2045
122	0	1	1.5466	1.2138	1.9883
123	0	1	1.1033	1.344	1.4058
124	0	1	1.523	-0.6538	1.8741
125	0	1	1.9288	-0.0719	2.2683
126	0	1	2.3409	-0.84	2.4138
127	0	1	2.3378	-1.5085	2.8987
128	1	1	2.0001	2.0001	2.0001
129	1	1	2.8825	2.1131	2.8804
130	1	1	1.8377	2.3097	1.7965
131	1	1	1.241	1.6633	1.6718
132	1	1	2.3244	1.3064	1.551
133	1	1	2.5244	1.454	1.1223
134	1	1	1.9537	1.9148	0.7238
135	1	1	2.3481	2.727	1.4715
136	1	1	2.0915	1.8386	1.1741
137	1	1	2.0139	2.1274	0.243
138	1	1	2.4932	1.8637	0.2229
139	1	1	1.4988	2.0879	1.215
140	1	1	2.6239	2.3361	0.5204
141	1	1	2.668	2.634	1.1535
142	1	1	3.3493	2.9936	1.1781
143	1	1	4.11	3.7445	1.2153
144	1	1	2.7922	2.6242	2.0671
145	1	1	2.1401	3.5528	1.7155
146	1	1	2.236	3.2461	2.0933
147	1	1	2.6189	2.63	1.7936
148	1	1	2.6339	3.3727	2.4633
149	1	1	3.0433	3.5968	1.6402
150	1	1	2.4914	3.8353	1.4799
151	1	1	1.5497	3.7409	2.0346
152	1	1	2.9331	3.4807	2.8209
153	1	1	3.5142	3.3755	2.1835
154	1	1	3.3559	3.4887	1.8495
155	1	1	3.0369	3.0763	1.9097
156	1	1	2.8742	4.2797	3.6207
157	1	1	3.4442	5.1278	3.5357
158	1	1	2.294	5.1344	3.843
159	1	1	1.3326	4.2154	3.9396
160	1	1	2.0842	1.0329	1.2055
161	1	1	2.7851	0.7089	0.9039
162	1	1	2.9223	0.7432	0.3249
163	1	1	3.0922	0.8499	-0.085
164	1	1	1.4682	0.1027	2.0383
165	1	1	1.5968	-0.7978	1.3567
166	1	1	0.503	0.1165	1.3361
167	1	1	0.3469	-0.8331	0.9766
168	1	1	1.4983	1.841	0.2875
169	1	1	0.778	1.705	1.1531
170	1	1	0.6114	2.0483	0.2482
171	1	1	0.83	1.347	0.7253
172	1	1	0.8327	2.8155	1.098
173	1	1	0.3212	3.4887	1.0496
174	1	1	1.5105	3.6727	1.1521
175	1	1	0.8056	4.3735	0.7256
176	1	1	3.0592	1.4178	1.291
177	1	1	2.9562	2.0749	0.3284
178	1	1	4.0383	2.0009	1.4647
179	1	1	3.8618	2.6101	2.2468
180	1	1	2.2104	2.3283	0.7784
181	1	1	2.4714	3.226	0.8822
182	1	1	2.1484	2.6006	1.6184
183	1	1	2.9432	1.8427	1.2137
184	1	1	3.2994	1.2501	1.8192
185	1	1	3.2964	1.7396	1.2533
186	1	1	3.9966	1.8415	2.2719
187	1	1	3.635	1.8912	3.0235
188	1	1	4.1169	0.3823	1.0443
189	1	1	4.2455	-0.0874	1.885
190	1	1	4.8068	-0.13	0.8266
191	1	1	3.8474	-0.7434	1.4313
192	1	1	1.6816	2.1941	2.507
193	1	1	2.2431	3.025	2.2534
194	1	1	1.8152	2.4559	1.9528
195	1	1	1.2606	2.9705	1.9461
196	1	1	2.1121	1.4607	2.4871
197	1	1	1.5238	1.9264	2.122
198	1	1	1.9259	0.6995	1.5585
199	1	1	1.6284	0.109	2.5085
200	1	1	1.0398	2.3109	1.7317
201	1	1	1.7706	1.62	0.8685
202	1	1	1.3042	1.8146	2.7112
203	1	1	0.6424	2.2299	1.7345
204	1	1	1.7952	2.9144	2.1416
205	1	1	1.5128	2.5859	2.9272
206	1	1	0.82	2.1557	2.1436
207	1	1	-0.0972	1.8543	1.7409
208	1	1	2.306	2.9729	3.2078
209	1	1	2.5662	3.031	2.3183
210	1	1	2.3772	3.5782	2.7129
211	1	1	1.5143	2.621	2.6203
212	1	1	2.8829	2.6524	2.7933
213	1	1	2.0119	3.1721	3.5814
214	1	1	3.8508	1.8602	2.4497
215	1	1	4.1755	2.2802	3.3318
216	1	1	2.1034	3.8052	3.0378
217	1	1	1.5815	3.089	3.1652
218	1	1	2.4161	3.3237	3.7466
219	1	1	1.5552	2.5194	3.0717
220	1	1	2.5822	4.3823	3.1435
221	1	1	2.8256	5.1985	2.6907
222	1	1	2.1409	5.2467	3.4026
223	1	1	1.75	4.3768	2.4359
224	1	1	1.8261	1.7466	2.7475
225	1	1	1.2161	1.6704	3.6399
226	1	1	1.1647	2.2892	2.5922
227	1	1	1.3754	1.425	3.2927
228	1	1	2.518	1.1147	3.3835
229	1	1	2.4214	1.0815	2.6741
230	1	1	2.3069	1.9602	3.6378
231	1	1	1.9189	1.6058	3.2767
232	1	1	1.0309	2.2396	2.1301
233	1	1	1.6971	2.7911	3.0075
234	1	1	1.8382	1.5243	2.5862
235	1	1	1.7681	1.7304	3.1726
236	1	1	0.2112	1.5595	1.8177
237	1	1	0.031	1.6984	2.3696
238	1	1	-0.0202	2.0356	1.4112
239	1	1	-0.0325	2.5109	2.1479
240	1	1	1.2594	0.9493	1.9007
241	1	1	0.4362	0.5096	2.7661
242	1	1	2.0818	0.1696	1.6848
243	1	1	2.5867	0.4655	2.1911
244	1	1	0.7	1.6522	2.8025
245	1	1	1.0659	0.719	2.59
246	1	1	1.4139	1.55	2.0317
247	1	1	0.5455	0.6692	2.6688
248	1	1	0.3162	0.4907	2.7389
249	1	1	0.6658	1.1484	3.1306
250	1	1	0.2817	0.7996	2.7401
251	1	1	0.7114	1.402	2.2869
252	1	1	-0.2621	0.4544	2.9694
253	1	1	-0.2389	1.1345	2.082
254	1	1	-0.0538	0.2632	3.2494
255	1	1	-0.2886	-0.688	3.9169
256	2	1	3.0001	3.0001	3.0001
257	2	1	2.5992	3.9054	3.3922
258	2	1	2.8388	2.2978	2.2931
259	2	1	2.2382	2.6288	1.3669
260	2	1	3.0548	3.6808	3.1441
261	2	1	3.9758	4.3799	2.7028
262	2	1	2.9857	4.0029	3.0859
263	2	1	2.0378	4.2074	3.3363
264	2	1	2.8544	2.6383	3.1806
265	2	1	2.3505	2.677	3.6884
266	2	1	2.7818	2.3339	3.2485
267	2	1	3.0989	2.6225	3.1262
268	2	1	3.2949	2.2096	2.632
269	2	1	3.4537	2.1503	3.1758
270	2	1	2.8505	1.8205	2.9778
271	2	1	1.9187	1.2701	3.6664
272	2	1	2.4587	3.6813	3.8398
273	2	1	3.1823	4.5159	3.8288
274	2	1	2.4008	4.5939	4.5645
275	2	1	2.3552	3.8393	3.8332
276	2	1	2.2668	2.9824	3.6059
277	2	1	3.1506	3.2772	2.9378
278	2	1	2.1488	2.8124	4.4337
279	2	1	2.1434	2.2396	4.1104
280	2	1	2.008	4.2715	3.5339
281	2	1	1.7101	5.0981	2.5747
282	2	1	2.0849	4.3176	3.5137
283	2	1	1.2061	3.3329	4.2736
284	2	1	1.4475	5.2655	3.1539
285	2	1	1.6173	5.8949	3.7278
286	2	1	0.5826	4.7738	4.0321
287	2	1	0.1034	4.2638	3.331
288	2	1	3.3281	2.3934	3.022
289	2	1	4.0861	2.758	3.1316
290	2	1	4.1273	2.1184	3.7574
291	2	1	3.1287	1.6575	3.8575
292	2	1	3.7405	2.9004	3.9736
293	2	1	4.4919	3.2805	3.059
294	2	1	3.1471	2.8547	3.4114
295	2	1	3.9328	2.6373	3.0847
296	2	1	4.1515	3.288	3.9797
297	2	1	4.013	2.3491	3.5021
298	2	1	4.4753	3.9991	4.1927
299	2	1	5.0743	4.536	4.3352
300	2	1	3.4927	3.3972	4.968
301	2	1	4.4822	2.9937	5.9276
302	2	1	3.5375	3.9117	4.414
303	2	1	4.4879	4.4818	5.2009
304	2	1	4.0719	2.616	2.8328
305	2	1	3.2886	3.342	3.3731
306	2	1	3.7191	3.5951	2.2216
307	2	1	4.3097	2.9861	3.1093
308	2	1	3.7644	3.2736	2.6442
309	2	1	2.9899	4.0946	1.7472
310	2	1	4.366	2.8684	1.6823
311	2	1	3.7524	3.6963	2.5496
312	2	1	4.9306	2.2506	3.5985
313	2	1	5.7985	2.0947	4.4987
314	2	1	5.1365	2.5679	3.3941
315	2	1	5.171	2.3191	3.4104
316	2	1	5.6069	1.9662	2.8598
317	2	1	5.2704	1.8245	3.3624
318	2	1	6.4401	1.7348	3.4861
319	2	1	6.7796	1.8301	4.376
320	2	1	3.4889	3.5261	2.0931
321	2	1	2.6264	4.211	2.1396
322	2	1	3.6923	2.9811	1.1893
323	2	1	4.1722	3.1038	1.5591
324	2	1	3.978	2.771	2.8892
325	2	1	4.8021	2.2579	3.2773
326	2	1	4.3466	2.3157	2.0717
327	2	1	3.8393	2.001	1.4944
328	2	1	2.6179	4.3004	1.5281
329	2	1	1.6256	4.8174	1.5711
330	2	1	1.7086	4.6476	2.1691
331	2	1	1.4806	5.0645	2.2855
332	2	1	2.7656	4.7982	1.3863
333	2	1	2.2606	5.4906	1.4397
334	2	1	3.4682	4.1466	2.1798
335	2	1	2.6535	3.3478	2.2496
336	2	1	3.8123	3.6296	1.1647
337	2	1	4.0795	4.5423	1.7319
338	2	1	3.9853	3.8083	0.5505
339	2	1	3.2087	3.6133	-0.0847
340	2	1	4.772	3.0363	1.2
341	2	1	5.064	3.2871	0.8083
342	2	1	4.3468	2.2308	0.5806
343	2	1	3.7175	2.8268	0.3454
344	2	1	4.7088	3.1021	0.9234
345	2	1	5.5405	3.4239	0.2878
346	2	1	3.9142	2.336	0.1078
347	2	1	2.9431	2.1509	0.1846
348	2	1	4.009	3.7206	1.6792
349	2	1	3.3579	4.005	2.2577
350	2	1	3.2377	3.2425	2.5635
351	2	1	2.6438	3.853	2.2287
352	2	1	2.7639	4.4733	2.3129
353	2	1	2.7212	4.4501	3.0916
354	2	1	2.6718	3.6712	1.4131
355	2	1	2.6776	2.7716	0.9219
356	2	1	2.3549	3.5341	2.2612
357	2	1	2.8896	2.5595	2.8143
358	2	1	1.6506	2.8692	2.8861
359	2	1	2.0822	2.6679	2.7773
360	2	1	3.6842	5.3805	1.9894
361	2	1	2.9419	4.4184	2.8652
362	2	1	4.3193	5.7347	2.1335
363	2	1	5.0222	6.604	1.7037
364	2	1	3.0078	4.587	2.5343
365	2	1	3.8366	4.4959	2.7522
366	2	1	2.4828	4.4057	2.0347
367	2	1	1.9009	4.6453	2.9535
368	2	1	3.7462	5.0196	2.0517
369	2	1	3.2221	5.4563	1.6186
370	2	1	4.0789	4.5788	1.0727
371	2	1	3.8652	5.4596	1.0235
372	2	1	4.284	4.3369	1.8228
373	2	1	5.0441	4.3685	2.6228
374	2	1	3.9183	4.2739	1.9874
375	2	1	3.9684	3.4181	2.6692
376	2	1	2.9413	4.7547	1.244
377	2	1	3.1843	5.2823	0.2763
378	2	1	3.8093	4.5425	2.2017
379	2	1	4.7332	3.799	1.3346
380	2	1	3.4073	3.8975	0.5708
381	2	1	2.8479	3.31	-0.0998
382	2	1	3.3252	4.3337	0.5408
383	2	1	4.1527	5.272	-0.1051

Bonds

0	1	0	1
1	1	1	2
2	1	2	3
3	1	3	4
4	1	4	5
5	1	5	6
6	1	6	7
7	1	7	8
8	1	8	9
9	1	9	10
10	1	10	11
11	1	11	12
12	1	12	13
13	1	13	14
14	1	14	15
15	1	15	16
16	1	16	17
17	1	17	18
18	1	18	19
19	1	19	20
20	1	20	21
21	1	21	22
22	1	22	23
23	1	23	24
24	1	24	25
25	1	25	26
26	1	26	27
27	1	27	28
28	1	28	29
29	1	29	30
30	1	30	31
31	1	31	32
32	1	32	33
33	1	33	34
34	1	34	35
35	1	35	36
36	1	36	37
37	1	37	38
38	1	38	39
39	1	39	40
40	1	40	41
41	1	41	42
42	1	42	43
43	1	43	44
44	1	44	45
45	1	45	46
46	1	46	47
47	1	47	48
48	1	48	49
49	1	49	50
50	1	50	51
51	1	51	52
52	1	52	53
53	1	53	54
54	1	54	55
55	1	55	56
56	1	56	57
57	1	57	58
58	1	58	59
59	1	59	60
60	1	60	61
61	1	61	62
62	1	62	63
63	1	63	64
64	1	64	65
65	1	65	66
66	1	66	67
67	1	67	68
68	1	68	69
69	1	69	70
70	1	70	71
71	1	71	72
72	1	72	73
73	1	73	74
74	1	74	75
75	1	75	76
76	1	76	77
77	1	77	78
78	1	78	79
79	1	79	80
80	1	80	81
81	1	81	82
82	1	82	83
83	1	83	84
84	1	84	85
85	1	85	86
86	1	86	87
87	1	87	88
88	1	88	89
89	1	89	90
90	1	90	91
91	1	91	92
92	1	92	93
93	1	93	94
94	1	94	95
95	1	95	96
96	1	96	97
97	1	97	98
98	1	98	99
99	1	99	100
100	1	100	101
101	1	101	102
102	1	102	103
103	1	103	104
104	1	104	105
105	1	105	106
106	1	106	107
107	1	107	108
108	1	108	109
109	1	109	110
110	1	110	111
111	1	111	112
112	1	112	113
113	1	113	114
114	1	114	115
115	1	115	116
116	1	116	117
117	1	117	118
118	1	118	119
119	1	119	120
120	1	120	121
121	1	121	122
122	1	122	123
123	1	123	124
124	1	124	125
125	1	125	126
126	1	126	127
127	1	0	1
128	1	1	2
129	1	2	3
130	1	3	4
131	1	4	5
132	1	5	6
133	1	6	7
134	1	7	8
135	1	8	9
136	1	9	10
137	1	10	11
138	1	11	12
139	1	12	13
140	1	13	14
141	1	14	15
142	1	15	16
143	1	16	17
144	1	17	18
145	1	18	19
146	1	19	20
147	1	20	21
148	1	21	22
149	1	22	23
150	1	23	24
151	1	24	25
152	1	25	26
153	1	26	27
154	1	27	28
155	1	28	29
156	1	29	30
157	1	30	31
158	1	31	32
159	1	32	33
160	1	33	34
161	1	34	35
162	1	35	36
163	1	36	37
164	1	37	38
165	1	38	39
166	1	39	40
167	1	40	41
168	1	41	42
169	1	42	43
170	1	43	44
171	1	44	45
172	1	45	46
173	1	46	47
174	1	47	48
175	1	48	49
176	1	49	50
177	1	50	51
178	1	51	52
179	1	52	53
180	1	53	54
181	1	54	55
182	1	55	56
183	1	56	57
184	1	57	58
185	1	58	59
186	1	59	60
187	1	60	61
188	1	61	62
189	1	62	63
190	1	63	64
191	1	64	65
192	1	65	66
193	1	66	67
194	1	67	68
195	1	68	69
196	1	69	70
197	1	70	71
198	1	71	72
199	1	72	73
200	1	73	74
201	1	74	75
202	1	75	76
203	1	76	77
204	1	77	78
205	1	78	79
206	1	79	80
207	1	80	81
208	1	81	82
209	1	82	83
210	1	83	84
211	1	84	85
212	1	85	86
213	1	86	87
214	1	87	88
215	1	88	89
216	1	89	90
217	1	90	91
218	1	91	92
219	1	92	93
220	1	93	94
221	1	94	95
222	1	95	96
223	1	96	97
224	1	97	98
225	1	98	99
226	1	99	100
227	1	100	101
228	1	101	102
229	1	102	103
230	1	103	104
231	1	104	105
232	1	105	106
233	1	106	107
234	1	107	108
235	1	108	109
236	1	109	110
237	1	110	111
238	1	111	112
239	1	112	113
240	1	113	114
241	1	114	115
242	1	115	116
243	1	116	117
244	1	117	118
245	1	118	119
246	1	119	120
247	1	120	121
248	1	121	122
249	1	122	123
250	1	123	124
251	1	124	125
252	1	125	126
253	1	126	127
254	1	0	1
255	1	1	2
256	1	2	3
257	1	3	4
258	1	4	5
259	1	5	6
260	1	6	7
261	1	7	8
262	1	8	9
263	1	9	10
264	1	10	11
265	1	11	12
266	1	12	13
267	1	13	14
268	1	14	15
269	1	15	16
270	1	16	17
271	1	17	18
272	1	18	19
273	1	19	20
274	1	20	21
275	1	21	22
276	1	22	23
277	1	23	24
278	1	24	25
279	1	25	26
280	1	26	27
281	1	27	28
282	1	28	29
283	1	29	30
284	1	30	31
285	1	31	32
286	1	32	33
287	1	33	34
288	1	34	35
289	1	35	36
290	1	36	37
291	1	37	38
292	1	38	39
293	1	39	40
294	1	40	41
295	1	41	42
296	1	42	43
297	1	43	44
298	1	44	45
299	1	45	46
300	1	46	47
301	1	47	48
302	1	48	49
303	1	49	50
304	1	50	51
305	1	51	52
306	1	52	53
307	1	53	54
308	1	54	55
309	1	55	56
310	1	56	57
311	1	57	58
312	1	58	59
313	1	59	60
314	1	60	61
315	1	61	62
316	1	62	63
317	1	63	64
318	1	64	65
319	1	65	66
320	1	66	67
321	1	67	68
322	1	68	69
323	1	69	70
324	1	70	71
325	1	71	72
326	1	72	73
327	1	73	74
328	1	74	75
329	1	75	76
330	1	76	77
331	1	77	78
332	1	78	79
333	1	79	80
334	1	80	81
335	1	81	82
336	1	82	83
337	1	83	84
338	1	84	85
339	1	85	86
340	1	86	87
341	1	87	88
342	1	88	89
343	1	89	90
344	1	90	91
345	1	91	92
346	1	92	93
347	1	93	94
348	1	94	95
349	1	95	96
350	1	96	97
351	1	97	98
352	1	98	99
353	1	99	100
354	1	100	101
355	1	101	102
356	1	102	103
357	1	103	104
358	1	104	105
359	1	105	106
360	1	106	107
361	1	107	108
362	1	108	109
363	1	109	110
364	1	110	111
365	1	111	112
366	1	112	113
367	1	113	114
368	1	114	115
369	1	115	116
370	1	116	117
371	1	117	118
372	1	118	119
373	1	119	120
374	1	120	121
375	1	121	122
376	1	122	123
377	1	123	124
378	1	124	125
379	1	125	126
380	1	126	127

Angles

0	0	1	1	2
1	1	1	2	3
2	2	1	3	4
3	3	1	4	5
4	4	1	5	6
5	5	1	6	7
6	6	1	7	8
7	7	1	8	9
8	8	1	9	10
9	9	1	10	11
10	10	1	11	12
11	11	1	12	13
12	12	1	13	14
13	13	1	14	15
14	14	1	15	16
15	15	1	16	17
16	16	1	17	18
17	17	1	18	19
18	18	1	19	20
19	19	1	20	21
20	20	1	21	22
21	21	1	22	23
22	22	1	23	24
23	23	1	24	25
24	24	1	25	26
25	25	1	26	27
26	26	1	27	28
27	27	1	28	29
28	28	1	29	30
29	29	1	30	31
30	30	1	31	32
31	31	1	32	33
32	32	1	33	34
33	33	1	34	35
34	34	1	35	36
35	35	1	36	37
36	36	1	37	38
37	37	1	38	39
38	38	1	39	40
39	39	1	40	41
40	40	1	41	42
41	41	1	42	43
42	42	1	43	44
43	43	1	44	45
44	44	1	45	46
45	45	1	46	47
46	46	1	47	48
47	47	1	48	49
48	48	1	49	50
49	49	1	50	51
50	50	1	51	52
51	51	1	52	53
52	52	1	53	54
53	53	1	54	55
54	54	1	55	56
55	55	1	56	57
56	56	1	57	58
57	57	1	58	59
58	58	1	59	60
59	59	1	60	61
60	60	1	61	62
61	61	1	62	63
62	62	1	63	64
63	63	1	64	65
64	64	1	65	66
65	65	1	66	67
66	66	1	67	68
67	67	1	68	69
68	68	1	69	70
69	69	1	70	71
70	70	1	71	72
71	71	1	72	73
72	72	1	73	74
73	73	1	74	75
74	74	1	75	76
75	75	1	76	77
76	76	1	77	78
77	77	1	78	79
78	78	1	79	80
79	79	1	80	81
80	80	1	81	82
81	81	1	82	83
82	82	1	83	84
83	83	1	84	85
84	84	1	85	86
85	85	1	86	87
86	86	1	87	88
87	87	1	88	89
88	88	1	89	90
89	89	1	90	91
90	90	1	91	92
91	91	1	92	93
92	92	1	93	94
93	93	1	94	95
94	94	1	95	96
95	95	1	96	97
96	96	1	97	98
97	97	1	98	99
98	98	1	99	100
99	99	1	100	101
100	100	1	101	102
101	101	1	102	103
102	102	1	103	104
103	103	1	104	105
104	104	1	105	106
105	105	1	106	107
106	106	1	107	108
107	107	1	108	109
108	108	1	109	110
109	109	1	110	111
110	110	1	111	112
111	111	1	112	113
112	112	1	113	114
113	113	1	114	115
114	114	1	115	116
115	115	1	116	117
116	116	1	117	118
117	117	1	118	119
118	118	1	119	120
119	119	1	120	121
120	120	1	121	122
121	121	1	122	123
122	122	1	123	124
123	123	1	124	125
124	124	1	125	126
125	125	1	126	127
126	128	1	129	130
127	129	1	130	131
128	130	1	131	132
129	131	1	132	133
130	132	1	133	134
131	133	1	134	135
132	134	1	135	136
133	135	1	136	137
134	136	1	137	138
135	137	1	138	139
136	138	1	139	140
137	139	1	140	141
138	140	1	141	142
139	141	1	142	143
140	142	1	143	144
141	143	1	144	145
142	144	1	145	146
143	145	1	146	147
144	146	1	147	148
145	147	1	148	149
146	148	1	149	150
147	149	1	150	151
148	150	1	151	152
149	151	1	152	153
150	152	1	153	154
151	153	1	154	155
152	154	1	155	156
153	155	1	156	157
154	156	1	157	158
155	157	1	158	159
156	158	1	159	160
157	159	1	160	161
158	160	1	161	162
159	161	1	162	163
160	162	1	163	164
161	163	1	164	165
162	164	1	165	166
163	165	1	166	167
164	166	1	167	168
165	167	1	168	169
166	168	1	169	170
167	169	1	170	171
168	170	1	171	172
169	171	1	172	173
170	172	1	173	174
171	173	1	174	175
172	174	1	175	176
173	175	1	176	177
174	176	1	177	178
175	177	1	178	179
176	178	1	179	180
177	179	1	180	181
178	180	1	181	182
179	181	1	182	183
180	182	1	183	184
181	183	1	184	185
182	184	1	185	186
183	185	1	186	187
184	186	1	187	188
185	187	1	188	189
186	188	1	189	190
187	189	1	190	191
188	190	1	191	192
189	191	1	192	193
190	192	1	193	194
191	193	1	194	195
192	194	1	195	196
193	195	1	196	197
194	196	1	197	198
195	197	1	198	199
196	198	1	199	200
197	199	1	200	201
198	200	1	201	202
199	201	1	202	203
200	202	1	203	204
201	203	1	204	205
202	204	1	205	206
203	205	1	206	207
204	206	1	207	208
205	207	1	208	209
206	208	1	209	210
207	209	1	210	211
208	210	1	211	212
209	211	1	212	213
210	212	1	213	214
211	213	1	214	215
212	214	1	215	216
213	215	1	216	217
214	216	1	217	218
215	217	1	218	219
216	218	1	219	220
217	219	1	220	221
218	220	1	221	222
219	221	1	222	223
220	222	1	223	224
221	223	1	224	225
222	224	1	225	226
223	225	1	226	227
224	226	1	227	228
225	227	1	228	229
226	228	1	229	230
227	229	1	230	231
228	230	1	231	232
229	231	1	232	233
230	232	1	233	234
231	233	1	234	235
232	234	1	235	236
233	235	1	236	237
234	236	1	237	238
235	237	1	238	239
236	238	1	239	240
237	239	1	240	241
238	240	1	241	242
239	241	1	242	243
240	242	1	243	244
241	243	1	244	245
242	244	1	245	246
243	245	1	246	247
244	246	1	247	248
245	247	1	248	249
246	248	1	249	250
247	249	1	250	251
248	250	1	251	252
249	251	1	252	253
250	252	1	253	254
251	253	1	254	255
252	254	1	255	256
253	255	1	256	257
254	256	1	257	258
255	257	1	258	259
256	258	1	259	260
257	259	1	260	261
258	260	1	261	262
259	261	1	262	263
260	262	1	263	264
261	263	1	264	265
262	264	1	265	266
263	265	1	266	267
264	266	1	267	268
265	267	1	268	269
266	268	1	269	270
267	269	1	270	271
268	270	1	271	272
269	271	1	272	273
270	272	1	273	274
271	273	1	274	275
272	274	1	275	276
273	275	1	276	277
274	276	1	277	278
275	277	1	278	279
276	278	1	279	280
277	279	1	280	281
278	280	1	281	282
279	281	1	282	283
280	282	1	283	284
281	283	1	284	285
282	284	1	285	286
283	285	1	286	287
284	286	1	287	288
285	287	1	288	289
286	288	1	289	290
287	289	1	290	291
288	290	1	291	292
289	291	1	292	293
290	292	1	293	294
291	293	1	294	295
292	294	1	295	296
293	295	1	296	297
294	296	1	297	298
295	297	1	298	299
296	298	1	299	300
297	299	1	300	301
298	300	1	301	302
299	301	1	302	303
300	302	1	303	304
301	303	1	304	305
302	304	1	305	306
303	305	1	306	307
304	306	1	307	308
305	307	1	308	309
306	308	1	309	310
307	309	1	310	311
308	310	1	311	312
309	311	1	312	313
310	312	1	313	314
311	313	1	314	315
312	314	1	315	316
313	315	1	316	317
314	316	1	317	318
315	317	1	318	319
316	318	1	319	320
317	319	1	320	321
318	320	1	321	322
319	321	1	322	323
320	322	1	323	324
321	323	1	324	325
322	324	1	325	326
323	325	1	326	327
324	326	1	327	328
325	327	1	328	329
326	328	1	329	330
327	329	1	330	331
328	330	1	331	332
329	331	1	332	333
330	332	1	333	334
331	333	1	334	335
332	334	1	335	336
333	335	1	336	337
334	336	1	337	338
335	337	1	338	339
336	338	1	339	340
337	339	1	340	341
338	340	1	341	342
339	341	1	342	343
340	342	1	343	344
341	343	1	344	345
342	344	1	345	346
343	345	1	346	347
344	346	1	347	348
345	347	1	348	349
346	348	1	349	350
347	349	1	350	351
348	350	1	351	352
349	351	1	352	353
350	352	1	353	354
351	353	1	354	355
352	354	1	355	356
353	355	1	356	357
354	356	1	357	358
355	357	1	358	359
356	358	1	359	360
357	359	1	360	361
358	360	1	361	362
359	361	1	362	363
360	362	1	363	364
361	363	1	364	365
362	364	1	365	366
363	365	1	366	367
364	366	1	367	368
365	367	1	368	369
366	368	1	369	370
367	369	1	370	371
368	370	1	371	372
369	371	1	372	373
370	372	1	373	374
371	373	1	374	375
372	374	1	375	376
373	375	1	376	377
374	376	1	377	378
375	377	1	378	379
376	378	1	379	380
377	379	1	380	381
378	380	1	381	382
379	381	1	382	383

Dihedrals

0	1	0	1	2	3
1	1	1	2	3	4
2	1	2	3	4	5
3	1	3	4	5	6
4	1	4	5	6	7
5	1	5	6	7	8
6	1	6	7	8	9
7	1	7	8	9	10
8	1	8	9	10	11
9	1	9	10	11	12
10	1	10	11	12	13
11	1	11	12	13	14
12	1	12	13	14	15
13	1	13	14	15	16
14	1	14	15	16	17
15	1	15	16	17	18
16	1	16	17	18	19
17	1	17	18	19	20
18	1	18	19	20	21
19	1	19	20	21	22
20	1	20	21	22	23
21	1	21	22	23	24
22	1	22	23	24	25
23	1	23	24	25	26
24	1	24	25	26	27
25	1	25	26	27	28
26	1	26	27	28	29
27	1	27	28	29	30
28	1	28	29	30	31
29	1	29	30	31	32
30	1	30	31	32	33
31	1	31	32	33	34
32	1	32	33	34	35
33	1	33	34	35	36
34	1	34	35	36	37
35	1	35	36	37	38
36	1	36	37	38	39
37	1	37	38	39	40
38	1	38	39	40	41
39	1	39	40	41	42
40	1	40	41	42	43
41	1	41	42	43	44
42	1	42	43	44	45
43	1	43	44	45	46
44	1	44	45	46	47
45	1	45	46	47	48
46	1	46	47	48	49
47	1	47	48	49	50
48	1	48	49	50	51
49	1	49	50	51	52
50	1	50	51	52	53
51	1	51	52	53	54
52	1	52	53	54	55
53	1	53	54	55	56
54	1	54	55	56	57
55	1	55	56	57	58
56	1	56	57	58	59
57	1	57	58	59	60
58	1	58	59	60	61
59	1	59	60	61	62
60	1	60	61	62	63
61	1	61	62	63	64
62	1	62	63	64	65
63	1	63	64	65	66
64	1	64	65	66	67
65	1	65	66	67	68
66	1	66	67	68	69
67	1	67	68	69	70
68	1	68	69	70	71
69	1	69	70	71	72
70	1	70	71	72	73
71	1	71	72	73	74
72	1	72	73	74	75
73	1	73	74	75	76
74	1	74	75	76	77
75	1	75	76	77	78
76	1	76	77	78	79
77	1	77	78	79	80
78	1	78	79	80	81
79	1	79	80	81	82
80	1	80	81	82	83
81	1	81	82	83	84
82	1	82	83	84	85
83	1	83	84	85	86
84	1	84	85	86	87
85	1	85	86	87	88
86	1	86	87	88	89
87	1	87	88	89	90
88	1	88	89	90	91
89	1	89	90	91	92
90	1	90	91	92	93
91	1	91	92	93	94
92	1	92	93	94	95
93	1	93	94	95	96
94	1	94	95	96	97
95	1	95	96	97	98
96	1	96	97	98	99
97	1	97	98	99	100
98	1	98	99	100	101
99	1	99	100	101	102
100	1	100	101	102	103
101	1	101	102	103	104
102	1	102	103	104	105
103	1	103	104	105	106
104	1	104	105	106	107
105	1	105	106	107	108
106	1	106	107	108	109
107	1	107	108	109	110
108	1	108	109	110	111
109	1	109	110	111	112
110	1	110	111	112	113
111	1	111	112	113	114
112	1	112	113	114	115
113	1	113	114	115	116
114	1	114	115	116	117
115	1	115	116	117	118
116	1	116	117	118	119
117	1	117	118	119	120
118	1	118	119	120	121
119	1	119	120	121	122
120	1	120	121	122	123
121	1	121	122	123	124
122	1	122	123	124	125
123	1	123	124	125	126
124	1	124	125	126	127
125	1	128	129	130	131
126	1	129	130	131	132
127	1	130	131	132	133
128	1	131	132	133	134
129	1	132	133	134	135
130	1	133	134	135	136
131	1	134	135	136	137
132	1	135	136	137	138
133	1	136	137	138	139
134	1	137	138	139	140
135	1	138	139	140	141
136	1	139	140	141	142
137	1	140	141	142	143
138	1	141	142	143	144
139	1	142	143	144	145
140	1	143	144	145	146
141	1	144	145	146	147
142	1	145	146	147	148
143	1	146	147	148	149
144	1	147	148	149	150
145	1	148	149	150	151
146	1	149	150	151	152
147	1	150	151	152	153
148	1	151	152	153	154
149	1	152	153	154	155
150	1	153	154	155	156
151	1	154	155	156	157
152	1	155	156	157	158
153	1	156	157	158	159
154	1	157	158	159	160
155	1	158	159	160	161
156	1	159	160	161	162
157	1	160	161	162	163
158	1	161	162	163	164
159	1	162	163	164	165
160	1	163	164	165	166
161	1	164	165	166	167
162	1	165	166	167	168
163	1	166	167	168	169
164	1	167	168	169	170
165	1	168	169	170	171
166	1	169	170	171	172
167	1	170	171	172	173
168	1	171	172	173	174
169	1	172	173	174	175
170	1	173	174	175	176
171	1	174	175	176	177
172	1	175	176	177	178
173	1	176	177	178	179
174	1	177	178	179	180
175	1	178	179	180	181
176	1	179	180	181	182
177	1	180	181	182	183
178	1	181	182	183	184
179	1	182	183	184	185
180	1	183	184	185	186
181	1	184	185	186	187
182	1	185	186	187	188
183	1	186	187	188	189
184	1	187	188	189	190
185	1	188	189	190	191
186	1	189	190	191	192
187	1	190	191	192	193
188	1	191	192	193	194
189	1	192	193	194	195
190	1	193	194	195	196
191	1	194	195	196	197
192	1	195	196	197	198
193	1	196	197	198	199
194	1	197	198	199	200
195	1	198	199	200	201
196	1	199	200	201	202
197	1	200	201	202	203
198	1	201	202	203	204
199	1	202	203	204	205
200	1	203	204	205	206
201	1	204	205	206	207
202	1	205	206	207	208
203	1	206	207	208	209
204	1	207	208	209	210
205	1	208	209	210	211
206	1	209	210	211	212
207	1	210	211	212	213
208	1	211	212	213	214
209	1	212	213	214	215
210	1	213	214	215	216
211	1	214	215	216	217
212	1	215	216	217	218
213	1	216	217	218	219
214	1	217	218	219	220
215	1	218	219	220	221
216	1	219	220	221	222
217	1	220	221	222	223
218	1	221	222	223	224
219	1	222	223	224	225
220	1	223	224	225	226
221	1	224	225	226	227
222	1	225	226	227	228
223	1	226	227	228	229
224	1	227	228	229	230
225	1	228	229	230	231
226	1	229	230	231	232
227	1	230	231	232	233
228	1	231	232	233	234
229	1	232	233	234	235
230	1	233	234	235	236
231	1	234	235	236	237
232	1	235	236	237	238
233	1	236	237	238	239
234	1	237	238	239	240
235	1	238	239	240	241
236	1	239	240	241	242
237	1	240	241	242	243
238	1	241	242	243	244
239	1	242	243	244	245
240	1	243	244	245	246
241	1	244	245	246	247
242	1	245	246	247	248
243	1	246	247	248	249
244	1	247	248	249	250
245	1	248	249	250	251
246	1	249	250	251	252
247	1	250	251	252	253
248	1	251	252	253	254
249	1	252	253	254	255
250	1	253	254	255	256
251	1	255	256	257	258
252	1	256	257	258	259
253	1	257	258	259	260
254	1	258	259	260	261
255	1	259	260	261	262
256	1	260	261	262	263
257	1	261	262	263	264
258	1	262	263	264	265
259	1	263	264	265	266
260	1	264	265	266	267
261	1	265	266	267	268
262	1	266	267	268	269
263	1	267	268	269	270
264	1	268	269	270	271
265	1	269	270	271	272
266	1	270	271	272	273
267	1	271	272	273	274
268	1	272	273	274	275
269	1	273	274	275	276
270	1	274	275	276	277
271	1	275	276	277	278
272	1	276	277	278	279
273	1	277	278	279	280
274	1	278	279	280	281
275	1	279	280	281	282
276	1	280	281	282	283
277	1	281	282	283	284
278	1	282	283	284	285
279	1	283	284	285	286
280	1	284	285	286	287
281	1	285	286	287	288
282	1	286	287	288	289
283	1	287	288	289	290
284	1	288	289	290	291
285	1	289	290	291	292
286	1	290	291	292	293
287	1	291	292	293	294
288	1	292	293	294	295
289	1	293	294	295	296
290	1	294	295	296	297
291	1	295	296	297	298
292	1	296	297	298	299
293	1	297	298	299	300
294	1	298	299	300	301
295	1	299	300	301	302
296	1	300	301	302	303
297	1	301	302	303	304
298	1	302	303	304	305
299	1	303	304	305	306
300	1	304	305	306	307
301	1	305	306	307	308
302	1	306	307	308	309
303	1	307	308	309	310
304	1	308	309	310	311
305	1	309	310	311	312
306	1	310	311	312	313
307	1	311	312	313	314
308	1	312	313	314	315
309	1	313	314	315	316
310	1	314	315	316	317
311	1	315	316	317	318
312	1	316	317	318	319
313	1	317	318	319	320
314	1	318	319	320	321
315	1	319	320	321	322
316	1	320	321	322	323
317	1	321	322	323	324
318	1	322	323	324	325
319	1	323	324	325	326
320	1	324	325	326	327
321	1	325	326	327	328
322	1	326	327	328	329
323	1	327	328	329	330
324	1	328	329	330	331
325	1	329	330	331	332
326	1	330	331	332	333
327	1	331	332	333	334
328	1	332	333	334	335
329	1	333	334	335	336
330	1	334	335	336	337
331	1	335	336	337	338
332	1	336	337	338	339
333	1	337	338	339	340
334	1	338	339	340	341
335	1	339	340	341	342
336	1	340	341	342	343
337	1	341	342	343	344
338	1	342	343	344	345
339	1	343	344	345	346
340	1	344	345	346	347
341	1	345	346	347	348
342	1	346	347	348	349
343	1	347	348	349	350
344	1	348	349	350	351
345	1	349	350	351	352
346	1	350	351	352	353
347	1	351	352	353	354
348	1	352	353	354	355
349	1	353	354	355	356
350	1	354	355	356	357
351	1	355	356	357	358
352	1	356	357	358	359
353	1	357	358	359	360
354	1	358	359	360	361
355	1	359	360	361	362
356	1	360	361	362	363
357	1	361	362	363	364
358	1	362	363	364	365
359	1	363	364	365	366
360	1	364	365	366	367
361	1	365	366	367	368
362	1	366	367	368	369
363	1	367	368	369	370
364	1	368	369	370	371
365	1	369	370	371	372
366	1	370	371	372	373
367	1	371	372	373	374
368	1	372	373	374	375
369	1	373	374	375	376
370	1	374	375	376	377
371	1	375	376	377	378
372	1	376	377	378	379
373	1	377	378	379	380
374	1	378	379	380	381
375	1	379	380	381	382
376	1	380	381	382	383
