LAMMPS UA chain data file

500 atoms
0 bonds
0 angles
0 dihedrals

1 atom types
1 bond types
1 angle types
1 dihedral types

-50 50 xlo xhi
-50 50 ylo yhi
-50 50 zlo zhi

Masses

1 112.0

Atoms

.2568 -2.3229
9 9 16.9658 8.8113 31.0469
10 10 -16.1242 31.6864 -17.3155
11 11 5.9095 38.2403 -6.646
12 12 36.8285 -22.6422 -41.5978
13 13 -18.2326 -37.6317 -19.083
14 14 12.5403 -34.694 -42.584
15 15 37.1877 23.7091 40.4207
16 16 -5.5804 -21.6273 -21.9201
17 17 -17.0161 38.2927 32.7934
18 18 31.2368 -25.1543 31.5205
19 19 -27.2281 16.2442 -4.6316
20 20 -30.9194 -17.0397 -0.2375
21 21 -37.2306 1.4787 -9.7776
22 22 7.7093 24.0273 -1.7558
23 23 -35.7463 22.2307 28.3292
24 24 -5.1872 -13.393 -3.5546
25 25 -32.9724 -36.7818 -2.7928
26 26 -25.9548 0.5566 10.5074
27 27 4.8205 -9.6583 -23.9845
28 28 -0.877 -33.7159 4.9758
29 29 6.0017 -33.1362 5.2744
30 30 -26.3401 -3.5367 42.0975
31 31 30.8003 -28.317 -10.0241
32 32 22.0778 -38.4516 -16.1257
33 33 -0.071 19.9891 32.6018
34 34 -31.1822 26.4626 -24.9009
35 35 -34.9699 -34.7692 -30.1424
36 36 0.7634 0.4509 -34.2763
37 37 -27.8658 -7.8688 32.9883
38 38 5.7962 25.2567 -34.9486
39 39 -5.7722 -28.6038 -27.3388
40 40 34.7689 -7.4927 -22.7733
41 41 6.0592 -13.4554 -11.0311
42 42 -7.8047 -3.9943 -24.5715
43 43 4.302 6.9451 -10.8707
44 44 -6.1675 5.984 -41.7803
45 45 -38.5639 22.1756 -16.9327
46 46 -30.6893 -30.0129 38.3021
47 47 -0.9713 -7.6017 7.6833
48 48 -42.7652 -12.5967 32.5139
49 49 24.7849 -14.5121 23.5802
50 50 19.9219 24.0637 31.2196
51 51 6.8114 -2.5959 32.9952
52 52 2.4169 -6.6645 13.4496
53 53 18.5628 -16.0181 36.0665
54 54 -33.5314 -31.7882 -31.3906
55 55 -5.1615 23.5541 -10.0804
56 56 42.8733 -26.4901 -14.8168
57 57 20.2639 22.1166 -21.4228
58 58 30.0125 -37.4152 27.6598
59 59 -32.5734 -16.1008 25.4647
60 60 -7.6225 -31.0538 -32.4667
61 61 26.2826 -21.3631 -17.5135
62 62 10.7569 21.2961 15.1154
63 63 25.5089 -27.4628 25.7093
64 64 -15.9944 -44.51 -28.4758
65 65 -37.2581 26.1636 19.4069
66 66 -17.3037 29.7125 -8.6633
67 67 -4.2099 16.8925 27.2347
68 68 -28.7299 -16.8873 -19.2767
69 69 21.3292 4.7097 -11.5497
70 70 15.4559 -28.1509 -45.8904
71 71 -31.1019 -15.3818 38.8493
72 72 13.6539 17.0379 -24.2451
73 73 -24.9909 14.2798 -30.0771
74 74 27.4097 -35.3181 21.2283
75 75 4.9449 10.7258 23.8457
76 76 20.0792 -32.65 34.2975
77 77 -24.8783 -22.2084 6.3401
78 78 7.5567 -2.315 25.6606
79 79 19.3314 -5.8682 12.939
80 80 -30.7782 22.8491 15.7801
81 81 45.3791 -10.3427 -19.7382
82 82 2.9511 35.4637 -41.8487
83 83 0.5926 -34.77 -14.453
84 84 -37.2757 -15.156 39.5267
85 85 7.8572 -38.1379 26.9956
86 86 -38.3081 28.02 -0.0523
87 87 34.167 -8.5855 -31.567
88 88 -13.3786 17.4799 26.2026
89 89 23.2729 -15.3165 16.9054
90 90 -37.1594 -8.9664 -0.1207
91 91 36.7209 24.2498 -6.0067
92 92 -3.1481 -13.0525 -12.1494
93 93 19.8258 -31.2628 22.602
94 94 -35.79 -29.1567 -23.6141
95 95 44.141 -34.1262 13.7553
96 96 25.5365 10.9227 -29.9367
97 97 34.7967 23.0541 10.308
98 98 -12.5965 16.4074 -23.8443
99 99 18.4908 -9.8649 -24.9938
100 100 7.0454 32.1581 -31.9332
101 101 26.1182 5.4912 34.3647
102 102 36.3537 -8.1636 -37.8438
103 103 -16.6853 11.6613 -5.4956
104 104 20.317 -8.302 -7.3421
105 105 -16.0374 -9.2883 -13.5781
106 106 -14.3292 9.4783 41.8651
107 107 -14.2072 35.6296 -26.1513
108 108 7.2882 11.8997 -30.4322
109 109 -0.7449 -10.8539 46.3988
110 110 -44.4487 -25.2783 4.0464
111 111 21.6652 12.5217 3.4344
112 112 22.6022 -6.7931 27.5605
113 113 35.1409 21.8384 22.0133
114 114 20.0891 5.5026 21.6955
115 115 -19.417 -33.3725 -3.2831
116 116 33.8048 21.5227 9.7814
117 117 -17.7045 29.3931 4.0352
118 118 48.869 -27.4915 -25.9146
119 119 0.699 9.639 37.5583
120 120 -12.7936 20.1899 1.3957
121 121 -26.7501 -30.2923 -13.2166
122 122 -26.6998 -27.6876 -16.4112
123 123 30.5298 6.7633 16.2192
124 124 -31.133 13.1263 -35.539
125 125 -6.7777 23.2021 -14.5539
126 126 36.7188 -22.7668 -7.732
127 127 30.7715 30.1204 7.6217
128 128 33.3178 -14.1367 33.7842
129 129 25.1611 -9.8465 -11.2335
130 130 -24.5218 -13.5932 -6.9464
131 131 4.5053 -23.9789 -20.5846
132 132 0.1139 45.26 -17.8479
133 133 -12.8293 -4.74 39.0189
134 134 -3.2056 4.7747 -11.0235
135 135 -0.6654 -5.8741 -21.3544
136 136 27.3449 7.0692 -39.6741
137 137 -30.1024 -31.1647 1.4648
138 138 -26.6532 -36.1545 25.112
139 139 -25.2792 -9.0165 -29.5854
140 140 18.5875 -24.7209 10.5649
141 141 17.0477 6.6131 -24.4954
142 142 -20.3861 8.8275 -36.7547
143 143 28.7205 37.6506 -24.5531
144 144 -9.8444 11.4981 29.2073
145 145 20.3534 -5.239 -2.953
146 146 13.9765 17.5874 -2.1103
147 147 17.554 -19.4537 -29.0346
148 148 36.2864 15.7246 -16.8252
149 149 -7.891 14.3253 -0.8578
150 150 -43.0001 33.424 33.8852
151 151 -10.7641 4.9884 -23.7872
152 152 24.7237 33.4987 5.0893
153 153 -28.2457 27.7944 -28.1386
154 154 -5.887 24.9238 9.6708
155 155 -0.3714 30.9914 -8.5341
156 156 -7.1891 -16.4263 20.8845
157 157 -36.3784 6.7454 27.0649
158 158 -26.0845 -44.9169 -1.8167
159 159 -12.1319 3.777 18.5381
160 160 20.8855 9.124 -31.8304
161 161 -34.4573 -14.3629 1.1816
162 162 -28.3885 -3.7495 1.4283
163 163 -9.5779 -16.0896 -1.3216
164 164 -1.9202 25.6344 30.0633
165 165 -5.8866 -16.9684 11.3809
166 166 33.9634 -8.3732 -6.3921
167 167 -41.2695 13.9743 41.8835
168 168 15.6843 -2.0765 32.1869
169 169 10.8737 -14.7457 -0.2189
170 170 39.5606 -48.4325 -5.4447
171 171 22.6384 5.7663 14.6802
172 172 -12.3218 -11.788 28.5765
173 173 -35.5033 33.4087 13.603
174 174 28.3182 -11.4431 2.6982
175 175 -16.6835 3.8973 -23.2279
176 176 20.4596 24.4804 -20.0469
177 177 -10.042 -2.7444 12.7222
178 178 4.4826 21.9836 4.7805
179 179 -9.5299 22.7293 18.2778
180 180 -24.216 5.6101 -28.5914
181 181 -20.3853 11.0855 -49.8226
182 182 -12.7017 -35.0157 13.405
183 183 13.7964 -23.8618 -26.0769
184 184 -23.71 1.6126 39.978
185 185 12.9145 18.1411 18.8087
186 186 8.8497 -0.0487 -7.5075
187 187 6.2779 -3.9755 -18.1598
188 188 -22.6456 -17.1397 -33.7512
189 189 -18.8977 4.5785 24.4759
190 190 32.1234 -30.664 20.1781
191 191 33.0006 -7.5082 -34.4651
192 192 -36.4203 -29.651 2.3561
193 193 14.267 -12.7553 -4.0789
194 194 -8.9133 0.619 27.3709
195 195 11.1705 38.3703 8.6667
196 196 23.5391 9.2188 10.2271
197 197 -1.0888 -8.6119 26.7847
198 198 -36.0763 -42.1648 38.8453
199 199 12.3706 28.2812 -10.1655
200 200 43.9258 -10.9637 -12.1617
201 201 22.9146 -42.2144 -38.5318
202 202 -20.8719 22.1091 13.6094
203 203 -18.6888 27.2332 8.671
204 204 -15.5932 -42.3773 24.936
205 205 39.9604 9.31 -2.131
206 206 0.7146 -27.6669 -12.9673
207 207 -13.3019 15.1641 10.6058
208 208 -11.9716 -17.1164 -23.4088
209 209 -10.5142 38.9667 -13.9219
210 210 38.7483 -1.7524 -2.5944
211 211 4.634 15.6768 -26.5536
212 212 -36.5032 -29.9646 17.3613
213 213 -20.7061 25.4949 -32.5027
214 214 -21.7143 -23.6066 26.2666
215 215 -5.4342 -30.6127 6.4219
216 216 25.969 -3.4889 -0.325
217 217 -5.8355 13.8282 -36.0809
218 218 -17.3369 -0.5637 -8.9187
219 219 23.9039 -33.9099 7.3859
220 220 -22.2042 10.3123 -8.5835
221 221 14.1189 35.9745 -24.2621
222 222 28.1679 -26.6543 0.1311
223 223 -23.3273 -1.8474 -40.6885
224 224 7.3314 -6.0923 -33.7723
225 225 9.1509 -14.2882 -22.9204
226 226 33.7467 13.4047 30.7471
227 227 21.725 26.4251 12.7354
228 228 15.4313 2.0642 19.6689
229 229 34.8566 14.3628 5.8698
230 230 -0.488 27.1519 23.2232
231 231 2.6164 -15.9375 18.6064
232 232 5.4628 -22.0393 -3.3637
233 233 -6.5124 24.3064 -26.937
234 234 21.0436 18.8933 35.4467
235 235 34.6717 11.8265 17.3237
236 236 16.1167 24.977 43.5519
237 237 -18.494 -24.1903 31.999
238 238 34.601 -19.9295 -12.3069
239 239 -27.601 -1.5519 -6.2715
240 240 -13.7672 -31.0007 1.206
241 241 27.8425 -5.2013 34.7607
242 242 -5.1409 9.3724 -25.7462
243 243 -19.4571 -13.3471 11.1965
244 244 28.1336 -7.6698 6.8484
245 245 8.9521 -17.987 -2.5136
246 246 18.2944 -39.5118 -10.0134
247 247 -38.1115 16.2885 -7.9708
248 248 -17.0011 -24.8946 -22.8275
249 249 -29.2616 -10.9862 -23.1419
250 250 -2.7632 35.7783 -5.5832
251 251 15.6082 20.0033 4.4844
252 252 -19.3715 -13.3629 -26.4575
253 253 27.0949 25.2223 -38.3079
254 254 27.4694 -20.874 -15.5365
255 255 -16.3806 45.7431 -35.7861
256 256 1.9074 39.3088 -30.0329
257 257 31.865 -29.187 -18.4175
258 258 -10.9668 -26.9521 -17.5397
259 259 -11.2747 -7.2708 16.2643
260 260 -29.5836 16.0048 31.6233
261 261 -32.0514 -29.1469 -4.9025
262 262 -23.9156 29.8074 -41.2433
263 263 -29.5772 24.8347 -11.9226
264 264 24.1201 0.442 -35.3213
265 265 -18.8783 2.8844 -13.6594
266 266 -39.6472 36.3079 23.1826
267 267 -29.0103 5.2622 8.6036
268 268 30.3714 -28.8823 -32.6657
269 269 -4.4448 32.4722 20.4212
270 270 -6.7559 27.9201 -16.875
271 271 -30.5729 28.2347 44.2944
272 272 16.2698 1.8069 -0.9866
273 273 0.2804 16.8877 20.3264
274 274 37.1613 -22.1021 21.4676
275 275 -7.1992 -3.2611 -25.4873
276 276 12.6297 33.2916 16.7938
277 277 11.705 -25.4329 9.1177
278 278 -5.8354 -15.4935 -15.4414
279 279 13.3462 39.1135 -0.8651
280 280 -49.1219 -20.0709 18.1866
281 281 -25.4714 16.0497 15.0235
282 282 22.591 7.3771 -22.9962
283 283 14.9173 -13.7031 13.9764
284 284 -43.9379 -5.9509 27.4416
285 285 -7.5834 35.5404 -44.6503
286 286 -23.2828 24.046 -36.9267
287 287 -32.7568 39.8152 22.7185
288 288 -27.4754 41.2951 -22.6077
289 289 8.7692 -28.0313 15.6895
290 290 -23.553 13.5148 -18.0768
291 291 12.2172 16.3695 -6.9993
292 292 -11.1634 32.9795 5.4211
293 293 -27.8227 -2.2437 12.463
294 294 -12.6644 -10.5841 -30.5252
295 295 -9.5713 -38.5329 7.8527
296 296 -5.5574 -21.5186 -38.0578
297 297 4.6876 -43.2399 3.7795
298 298 23.6009 24.8989 18.6572
299 299 -35.8601 -24.6725 -2.1037
300 300 29.6385 -22.006 -25.8178
301 301 25.5499 -27.5444 16.2099
302 302 41.4834 -5.3408 18.311
303 303 3.6975 19.3932 -4.3813
304 304 11.6923 0.5855 -22.9482
305 305 -34.0018 -17.9965 13.6941
306 306 32.5835 5.8696 -0.0538
307 307 38.3039 29.5878 -13.878
308 308 20.9433 -44.1153 -11.8942
309 309 -6.8867 35.9702 15.1957
310 310 -12.07 4.1362 8.4681
311 311 -0.0932 -5.6434 -2.9217
312 312 2.9689 16.2797 33.7564
313 313 -29.258 30.3791 -21.4942
314 314 19.2625 22.9581 19.5916
315 315 -8.7957 11.4875 -11.9613
316 316 8.2752 1.2041 13.9898
317 317 30.6537 2.5757 -20.648
318 318 -0.3497 -8.2509 30.9361
319 319 -15.6915 28.6901 27.4477
320 320 16.908 -23.5391 -22.1931
321 321 -2.6496 16.4514 0.3772
322 322 3.7995 29.4546 -26.8262
323 323 -0.7167 13.348 -21.0916
324 324 -6.8548 9.1182 -16.6939
325 325 20.7566 4.3507 17.0158
326 326 16.3367 7.3757 -44.213
327 327 -9.8301 23.3603 -25.7856
328 328 -25.9562 13.1086 13.3894
329 329 -24.2193 -25.5269 -6.1939
330 330 31.8174 36.7092 -4.4971
331 331 -19.6145 -18.9202 14.4736
332 332 -11.0752 -21.0568 26.7805
333 333 4.991 6.8804 9.1938
334 334 26.4123 41.6203 13.7738
335 335 -38.7153 -18.6623 -1.8646
336 336 10.2501 17.1382 27.9012
337 337 -26.425 -12.5017 15.6936
338 338 -30.0571 -28.776 40.1651
339 339 0.2399 23.2139 29.2157
340 340 -34.7727 -11.2329 23.6309
341 341 -19.9586 36.9631 20.5237
342 342 14.8805 6.519 -11.0554
343 343 -15.5489 -29.0835 -25.8372
344 344 7.7905 -17.5363 27.4462
345 345 -23.8117 24.5913 27.3703
346 346 -30.8049 13.966 -11.8578
347 347 -44.3553 -13.6853 10.2162
348 348 -1.7999 -30.2983 27.1048
349 349 12.5215 -8.3891 -13.4965
350 350 45.8427 21.3458 3.6345
351 351 35.2575 -39.8245 -21.7723
352 352 22.8867 15.8096 24.0997
353 353 13.3591 -40.011 13.4239
354 354 28.4763 24.1636 -12.1854
355 355 0.7568 -0.6839 15.7181
356 356 9.5175 17.3723 17.2238
357 357 11.2452 22.441 -11.9456
358 358 1.77 9.6113 4.3574
359 359 31.0915 -1.4042 -16.565
360 360 8.6601 -31.4979 44.1355
361 361 27.5884 42.8427 -3.4401
362 362 3.2964 -34.3985 0.7799
363 363 -37.8983 11.4852 -36.8851
364 364 -10.1399 -27.57 28.9846
365 365 16.4796 -5.5061 -30.763
366 366 24.629 -34.5069 -28.4408
367 367 -3.7156 -19.3201 15.5422
368 368 -20.6017 -3.4907 -13.9234
369 369 -10.0226 -0.9797 2.7106
370 370 -29.1585 34.3094 -29.0385
371 371 12.8382 -11.9141 34.0579
372 372 28.708 -43.4081 -31.6327
373 373 14.6261 -26.9315 -37.2442
374 374 -11.8833 22.3071 5.6881
375 375 27.4201 -14.6424 10.0067
376 376 1.9848 -14.6626 18.6152
377 377 -43.6563 17.8574 8.6264
378 378 -35.535 19.3433 24.6583
379 379 -34.617 7.2814 -13.1083
380 380 4.7054 -8.6854 6.607
381 381 25.8616 -11.9497 -19.6995
382 382 -20.6134 -2.6755 -3.8155
383 383 30.8482 34.0562 -1.3764
384 384 25.5658 22.7303 -29.4416
385 385 -0.4056 4.0796 4.0871
386 386 8.4387 -43.4448 37.0527
387 387 -9.6781 -21.196 25.1498
388 388 34.2989 20.5945 20.5807
389 389 24.8054 -1.4179 39.0118
390 390 18.365 28.053 -20.0056
391 391 -24.0591 -36.9421 -35.7883
392 392 3.0696 -34.9433 28.1474
393 393 -8.7759 -22.5639 8.3111
394 394 11.1374 9.885 3.4148
395 395 -13.7727 -22.1329 8.1738
396 396 -28.5684 17.2655 26.2064
397 397 -10.3366 -13.3802 -2.0169
398 398 31.7377 41.9107 -19.6691
399 399 -20.1225 -11.1552 21.0107
400 400 21.4637 34.7094 22.629
401 401 32.1642 27.0134 -26.4611
402 402 -18.0545 -30.8603 21.3341
403 403 -1.2652 11.7433 -32.9132
404 404 3.153 -2.5289 -13.1231
405 405 -4.5495 26.6323 5.3152
406 406 44.6965 -4.6681 -13.2697
407 407 -27.2037 -0.4085 -28.0686
408 408 24.3311 -24.249 0.3922
409 409 30.7238 -17.7183 17.3605
410 410 -4.3527 -30.2499 39.8447
411 411 -9.2685 -31.4984 3.7477
412 412 32.9287 -3.8865 -0.9935
413 413 -9.7872 5.1453 0.0639
414 414 16.0641 28.6034 -29.8765
415 415 -0.0942 -31.2355 33.3257
416 416 -37.5528 3.6367 -32.8966
417 417 -34.3892 4.2718 -20.9511
418 418 26.3523 11.6966 3.3842
419 419 15.4478 15.198 -10.3575
420 420 32.4429 24.0955 29.7121
421 421 -0.8398 -9.2159 38.3241
422 422 -12.279 -11.7653 -37.8225
423 423 -31.2209 -34.1591 -4.8332
424 424 -2.6457 31.4118 28.5123
425 425 -26.4399 -11.4584 28.8844
426 426 -24.5267 24.2828 -7.217
427 427 -8.088 25.4418 -20.8253
428 428 12.4531 -37.6569 -23.1808
429 429 -17.351 37.883 33.7722
430 430 30.4206 1.1956 6.3589
431 431 -32.1327 10.6396 -24.3239
432 432 35.1144 -3.6665 19.9803
433 433 16.9435 -31.4976 -7.523
434 434 -22.15 -41.2303 -9.5832
435 435 27.0248 -17.8592 33.3508
436 436 26.471 10.5406 -9.1248
437 437 10.9439 12.0315 41.4636
438 438 17.5913 36.6483 -48.3943
439 439 49.7487 -41.5373 16.2862
440 440 -22.3033 12.0942 -35.0633
441 441 31.1247 -17.4871 -24.7277
442 442 -30.0326 -18.777 14.6831
443 443 20.2879 -26.0267 -14.5556
444 444 -2.851 6.1342 10.931
445 445 18.9467 31.9885 2.1968
446 446 -18.2068 -38.4419 -15.1503
447 447 -8.7348 -27.7778 -8.9554
448 448 -13.6768 -24.1892 -8.7765
449 449 28.1039 21.4645 -27.1192
450 450 -2.8379 -12.981 33.6436
451 451 23.1425 19.0204 16.8651
452 452 -0.496 10.4849 -10.1077
453 453 -24.9268 27.0033 11.8123
454 454 -3.361 -24.2973 6.059
455 455 10.5874 -23.158 -0.8171
456 456 -0.0518 -3.5659 18.4063
457 457 -27.9559 44.6056 23.1473
458 458 8.2875 17.2051 -23.7396
459 459 -0.316 31.1635 12.2927
460 460 23.8141 13.263 -10.8873
461 461 6.3639 -30.689 -8.8925
462 462 10.4178 -0.789 21.3632
463 463 -20.525 -3.0277 16.0621
464 464 -21.0094 -10.2916 36.5656
465 465 21.2759 -5.0651 14.2031
466 466 -35.5308 -4.8215 -27.3308
467 467 -35.0488 -29.1053 -45.2127
468 468 -18.5918 -37.8209 -3.1674
469 469 -13.956 19.1983 -29.2352
470 470 -17.3755 9.4694 25.1082
471 471 -38.8205 -15.4835 -26.4673
472 472 27.3958 32.8047 33.2337
473 473 -26.685 46.156 31.5218
474 474 9.8418 -41.2167 -13.3895
475 475 8.9403 -8.9516 -33.8226
476 476 -17.8738 5.9185 31.8645
477 477 32.5683 0.6482 33.7008
478 478 12.6398 -18.0519 4.8001
479 479 -1.1106 -20.1037 -31.7884
480 480 7.4083 -26.3996 25.435
481 481 -36.9246 17.345 -28.8946
482 482 8.5769 -1.3469 11.735
483 483 2.428 33.4754 11.6155
484 484 22.3592 -0.0776 -23.0623
485 485 -16.9842 -3.3603 5.0971
486 486 -5.3609 26.7742 -11.5976
487 487 1.0457 -16.0617 -17.9093
488 488 -20.4129 -21.2379 -16.942
489 489 -19.1294 17.4618 21.1556
490 490 5.2023 -27.6455 -43.3494
491 491 45.147 3.7707 22.9671
492 492 -6.4732 6.983 -14.0624
493 493 -29.1535 -40.6742 7.6732
494 494 -27.5918 22.4173 -15.5987
495 495 21.3267 -21.4647 -3.9959
496 496 24.1088 33.2632 -11.9249
497 497 22.6565 -26.0265 18.0735
498 498 -29.0956 37.4443 4.4301
499 499 23.3983 15.4587 30.3739
500 500 32.6201 -24.796 38.8939
