LAMMPS UA chain data file

1000 atoms
500 bonds
0 angles
0 dihedrals

1 atom types
1 bond types
1 angle types
1 dihedral types

-23.471697 23.471697 xlo xhi
-23.471697 23.471697 ylo yhi
-23.471697 23.471697 zlo zhi

Masses

1 17.0

Atoms

1 1 1 -35.6668 8.7054 2.0219
2 1 1 -36.290663151189825 8.342060574728007 2.3695635464063285
3 2 1 -6.8357 39.8773 -45.62
4 2 1 -7.65655597654797 39.52813619216994 -44.88570019128316
5 3 1 1.3467 -37.7757 -27.6561
6 3 1 1.1603587505969064 -37.41637876296206 -28.53480916443382
7 4 1 9.1385 -12.1134 33.4424
8 4 1 8.242917295687118 -11.396209690734905 33.61821888414767
9 5 1 -19.957 11.5765 -1.4223
10 5 1 -20.666215230072158 12.425180283693345 -2.3966114053840712
11 6 1 8.5101 6.7848 33.5328
12 6 1 9.261205149909733 5.95959922507541 33.81884529165776
13 7 1 -33.3219 -22.4003 -32.5365
14 7 1 -32.46179604905894 -22.880276567839783 -32.55771326276885
15 8 1 38.3088 13.2568 -2.3229
16 8 1 37.4587425731724 14.057588969817475 -3.2745858480268213
17 9 1 16.9658 8.8113 31.0469
18 9 1 16.320105376767067 9.209760822793651 32.02469625057708
19 10 1 -16.1242 31.6864 -17.3155
20 10 1 -16.989311151501187 31.538201627511857 -17.74401989576118
21 11 1 5.9095 38.2403 -6.646
22 11 1 6.63502366620076 39.157259608946944 -6.573512478658577
23 12 1 36.8285 -22.6422 -41.5978
24 12 1 36.25581316172189 -22.768071630702106 -41.631288265799725
25 13 1 -18.2326 -37.6317 -19.083
26 13 1 -17.300077503949367 -37.57494223734861 -18.892424101587064
27 14 1 12.5403 -34.694 -42.584
28 14 1 11.670713077300121 -35.674511299759835 -41.77211003901114
29 15 1 37.1877 23.7091 40.4207
30 15 1 38.115590217464394 23.96735836158004 39.51835137643678
31 16 1 -5.5804 -21.6273 -21.9201
32 16 1 -6.188974580952345 -21.352188424297477 -21.112018359649486
33 17 1 -17.0161 38.2927 32.7934
34 17 1 -16.359592940941834 38.12143341855854 32.09822170115382
35 18 1 31.2368 -25.1543 31.5205
36 18 1 31.0249327988749 -26.058337197508067 31.958047306492514
37 19 1 -27.2281 16.2442 -4.6316
38 19 1 -27.204817705133355 16.787865957598502 -5.532458661409865
39 20 1 -30.9194 -17.0397 -0.2375
40 20 1 -30.68871763827271 -16.211786539762787 0.09476755761769567
41 21 1 -37.2306 1.4787 -9.7776
42 21 1 -36.96671633902426 0.7874212749342566 -8.863623976435797
43 22 1 7.7093 24.0273 -1.7558
44 22 1 7.261747655321145 24.932314317058903 -1.3984639621569734
45 23 1 -35.7463 22.2307 28.3292
46 23 1 -36.33821941632447 21.834982239590964 28.696317227688493
47 24 1 -5.1872 -13.393 -3.5546
48 24 1 -4.404000522387763 -13.025512473974427 -2.716762232415142
49 25 1 -32.9724 -36.7818 -2.7928
50 25 1 -32.87453644845688 -37.159343075354016 -3.6614906346795077
51 26 1 -25.9548 0.5566 10.5074
52 26 1 -26.629553986328226 0.14698492747148095 11.240314453655627
53 27 1 4.8205 -9.6583 -23.9845
54 27 1 4.209411179197049 -9.656773549495066 -23.429280112543665
55 28 1 -0.877 -33.7159 4.9758
56 28 1 -1.5763671273967805 -33.28996742072028 4.873570876289378
57 29 1 6.0017 -33.1362 5.2744
58 29 1 5.525493990838228 -34.00009702621696 5.13152149978789
59 30 1 -26.3401 -3.5367 42.0975
60 30 1 -25.863428514456523 -2.7369388599905653 42.117333083328546
61 31 1 30.8003 -28.317 -10.0241
62 31 1 30.558460511533024 -27.345281906777068 -10.179444067273081
63 32 1 22.0778 -38.4516 -16.1257
64 32 1 21.10327764293702 -38.3170119227543 -15.568922089256324
65 33 1 -0.071 19.9891 32.6018
66 33 1 0.9012772527353139 20.810703397747147 32.48328868190684
67 34 1 -31.1822 26.4626 -24.9009
68 34 1 -30.21554647670493 26.737190953779084 -25.24274249746282
69 35 1 -34.9699 -34.7692 -30.1424
70 35 1 -34.07702008471754 -34.44153617487491 -30.890679409578034
71 36 1 0.7634 0.4509 -34.2763
72 36 1 0.7861742388882339 -0.34346469550042086 -34.223925813239795
73 37 1 -27.8658 -7.8688 32.9883
74 37 1 -27.196875974039724 -8.758977541656424 33.00147209443543
75 38 1 5.7962 25.2567 -34.9486
76 38 1 6.462842251443995 25.658348701187574 -35.107379924248825
77 39 1 -5.7722 -28.6038 -27.3388
78 39 1 -6.250280851497134 -28.798862407330006 -26.818649366554265
79 40 1 34.7689 -7.4927 -22.7733
80 40 1 34.34401932431338 -7.488288539422193 -23.289344389400114
81 41 1 6.0592 -13.4554 -11.0311
82 41 1 6.817419133546869 -12.592692234720587 -11.970928058762667
83 42 1 -7.8047 -3.9943 -24.5715
84 42 1 -6.89252876826318 -3.089743084232205 -24.390860976347927
85 43 1 4.302 6.9451 -10.8707
86 43 1 4.798042706414099 7.354364169551118 -11.566124867661786
87 44 1 -6.1675 5.984 -41.7803
88 44 1 -6.654949384950751 5.925344624114283 -41.65166692583803
89 45 1 -38.5639 22.1756 -16.9327
90 45 1 -37.828648074520835 21.209568848783064 -17.229652898390253
91 46 1 -30.6893 -30.0129 38.3021
92 46 1 -31.507966880275855 -30.872378818622504 38.64954134378963
93 47 1 -0.9713 -7.6017 7.6833
94 47 1 -0.0204250643755286 -8.122867272553634 8.213347187475591
95 48 1 -42.7652 -12.5967 32.5139
96 48 1 -43.71843200525038 -12.548158363772616 33.28417570291827
97 49 1 24.7849 -14.5121 23.5802
98 49 1 24.454038617358975 -14.162836447243688 23.787771342214953
99 50 1 19.9219 24.0637 31.2196
100 50 1 19.101103442481573 24.986581660551206 30.841268329828143
101 51 1 6.8114 -2.5959 32.9952
102 51 1 7.592099314465722 -1.7191259140872426 32.928230545729605
103 52 1 2.4169 -6.6645 13.4496
104 52 1 3.022452503145266 -5.766279799616657 12.771284636685154
105 53 1 18.5628 -16.0181 36.0665
106 53 1 18.214745824898568 -15.421421929410718 36.69032746445122
107 54 1 -33.5314 -31.7882 -31.3906
108 54 1 -34.46561587282058 -31.923430756890184 -32.09013418790325
109 55 1 -5.1615 23.5541 -10.0804
110 55 1 -5.104459435735922 24.088217994070423 -10.741444749614766
111 56 1 42.8733 -26.4901 -14.8168
112 56 1 42.49246598195917 -25.767509299240064 -15.026717730105391
113 57 1 20.2639 22.1166 -21.4228
114 57 1 20.49041953392453 21.447334984219626 -22.11945468072694
115 58 1 30.0125 -37.4152 27.6598
116 58 1 30.916850296380108 -37.632242584476415 26.96323380359113
117 59 1 -32.5734 -16.1008 25.4647
118 59 1 -32.99584762979643 -16.448092115467436 25.040731993912893
119 60 1 -7.6225 -31.0538 -32.4667
120 60 1 -8.485494799341401 -30.796373103826046 -32.92751266248152
121 61 1 26.2826 -21.3631 -17.5135
122 61 1 26.171897292837247 -20.569747507137528 -18.286522727973544
123 62 1 10.7569 21.2961 15.1154
124 62 1 11.661976958252612 20.59697183356981 15.308741942844929
125 63 1 25.5089 -27.4628 25.7093
126 63 1 26.218346773646388 -27.37432250086017 25.71341358468013
127 64 1 -15.9944 -44.51 -28.4758
128 64 1 -16.39106585608849 -44.85270958494513 -28.37002105368461
129 65 1 -37.2581 26.1636 19.4069
130 65 1 -37.752016269374494 25.463757673669356 19.404062082421895
131 66 1 -17.3037 29.7125 -8.6633
132 66 1 -17.947985556950627 30.35924254360326 -9.090101183736673
133 67 1 -4.2099 16.8925 27.2347
134 67 1 -4.586888678382146 17.805534918729474 27.514572105353068
135 68 1 -28.7299 -16.8873 -19.2767
136 68 1 -29.016253471651236 -17.412133596992824 -19.187972653420367
137 69 1 21.3292 4.7097 -11.5497
138 69 1 21.942984316028216 5.05772428207989 -10.803781835556027
139 70 1 15.4559 -28.1509 -45.8904
140 70 1 15.96831613054673 -27.64193372339426 -46.59350224116016
141 71 1 -31.1019 -15.3818 38.8493
142 71 1 -30.114267280325066 -14.645944386141878 38.38559541352976
143 72 1 13.6539 17.0379 -24.2451
144 72 1 13.192380092987815 17.472942169766814 -23.402140035032627
145 73 1 -24.9909 14.2798 -30.0771
146 73 1 -24.017411348175756 14.784195847791123 -29.656289643304714
147 74 1 27.4097 -35.3181 21.2283
148 74 1 27.642850901609215 -34.5093923365964 20.969124713462165
149 75 1 4.9449 10.7258 23.8457
150 75 1 4.337862425102662 9.827125510390706 24.099778512188276
151 76 1 20.0792 -32.65 34.2975
152 76 1 20.8033060376023 -32.794274794156195 34.32219112767873
153 77 1 -24.8783 -22.2084 6.3401
154 77 1 -25.316482577012685 -22.537027158107275 5.590347088431495
155 78 1 7.5567 -2.315 25.6606
156 78 1 6.6176644465144605 -2.352959188094573 25.864413825884636
157 79 1 19.3314 -5.8682 12.939
158 79 1 18.367556977474266 -5.619217878240475 12.339661509934203
159 80 1 -30.7782 22.8491 15.7801
160 80 1 -31.14650534563049 22.279509906809608 15.163649705976644
161 81 1 45.3791 -10.3427 -19.7382
162 81 1 44.51160604893774 -9.636366877597377 -18.913146791733272
163 82 1 2.9511 35.4637 -41.8487
164 82 1 2.2982256873488796 35.21558047148927 -42.19277167574608
165 83 1 0.5926 -34.77 -14.453
166 83 1 0.20083466168514397 -35.283162582608384 -14.878986718844084
167 84 1 -37.2757 -15.156 39.5267
168 84 1 -36.51237450236873 -15.220860767405403 38.53776129378676
169 85 1 7.8572 -38.1379 26.9956
170 85 1 7.409788368505915 -38.148280615566506 26.91287882341817
171 86 1 -38.3081 28.02 -0.0523
172 86 1 -38.72958462289915 28.94276717090847 -0.06001901094926153
173 87 1 34.167 -8.5855 -31.567
174 87 1 33.26497711375702 -8.53299699943687 -32.01595835126554
175 88 1 -13.3786 17.4799 26.2026
176 88 1 -13.357001753443022 17.842689311567383 26.08498943173836
177 89 1 23.2729 -15.3165 16.9054
178 89 1 24.040664981484124 -16.175488129128055 17.290971682967935
179 90 1 -37.1594 -8.9664 -0.1207
180 90 1 -37.975483066517796 -9.18230252802037 -0.11023582186517575
181 91 1 36.7209 24.2498 -6.0067
182 91 1 37.51306918404224 23.539668375671273 -5.555231085537067
183 92 1 -3.1481 -13.0525 -12.1494
184 92 1 -3.1462205395647382 -13.24504097991566 -12.488988858404667
185 93 1 19.8258 -31.2628 22.602
186 93 1 19.46605386173234 -32.020930697369806 23.48459782194954
187 94 1 -35.79 -29.1567 -23.6141
188 94 1 -36.493186972001254 -29.013282811881194 -23.42064795960896
189 95 1 44.141 -34.1262 13.7553
190 95 1 43.202169608313916 -34.296882623558204 13.33732618511522
191 96 1 25.5365 10.9227 -29.9367
192 96 1 26.285658952308406 11.141685968193636 -30.438382168729326
193 97 1 34.7967 23.0541 10.308
194 97 1 35.690413821427185 22.91949426735352 9.510817777424043
195 98 1 -12.5965 16.4074 -23.8443
196 98 1 -11.628497297111949 15.954774640398496 -24.58307892307941
197 99 1 18.4908 -9.8649 -24.9938
198 99 1 17.569231493401837 -9.9573308233336 -25.826077550745694
199 100 1 7.0454 32.1581 -31.9332
200 100 1 7.881565347224185 31.724821124659307 -31.487979121693865
201 101 1 26.1182 5.4912 34.3647
202 101 1 26.17756089347375 5.66716141721983 35.262946695921194
203 102 1 36.3537 -8.1636 -37.8438
204 102 1 35.68400164099377 -7.949450690122081 -36.970693307700486
205 103 1 -16.6853 11.6613 -5.4956
206 103 1 -16.493178600756245 12.2691131920743 -4.572296611808498
207 104 1 20.317 -8.302 -7.3421
208 104 1 19.826445459997082 -7.671046036895401 -6.553321782967354
209 105 1 -16.0374 -9.2883 -13.5781
210 105 1 -15.753592811300074 -8.31537266868134 -12.906152261935146
211 106 1 -14.3292 9.4783 41.8651
212 106 1 -13.34285688704537 8.51611549933855 41.61165648451709
213 107 1 -14.2072 35.6296 -26.1513
214 107 1 -14.72292114761001 34.7625217280017 -25.52592494552943
215 108 1 7.2882 11.8997 -30.4322
216 108 1 7.2411775712743935 11.429914284829746 -31.06081408948597
217 109 1 -0.7449 -10.8539 46.3988
218 109 1 0.06515165378251953 -10.86069379804162 45.59746247277561
219 110 1 -44.4487 -25.2783 4.0464
220 110 1 -45.075276825321346 -24.966858681151013 3.6854373177264206
221 111 1 21.6652 12.5217 3.4344
222 111 1 22.3763916271297 12.412089556254866 3.3078479924146302
223 112 1 22.6022 -6.7931 27.5605
224 112 1 23.324682578598644 -6.7169184344321184 28.49672918998626
225 113 1 35.1409 21.8384 22.0133
226 113 1 35.247052506187934 22.686471008427585 21.38216437977409
227 114 1 20.0891 5.5026 21.6955
228 114 1 19.627870513787155 6.501158023451064 21.882813069081386
229 115 1 -19.417 -33.3725 -3.2831
230 115 1 -19.685216991196967 -32.93126621539124 -3.5729065564796043
231 116 1 33.8048 21.5227 9.7814
232 116 1 33.246140043933195 21.72292024671359 8.909125190670764
233 117 1 -17.7045 29.3931 4.0352
234 117 1 -17.102548192389477 28.70472874951667 4.636982251430201
235 118 1 48.869 -27.4915 -25.9146
236 118 1 49.06507147328124 -27.087553072038222 -26.365883310953286
237 119 1 0.699 9.639 37.5583
238 119 1 1.2904465739489779 8.981304564024228 37.528473099794304
239 120 1 -12.7936 20.1899 1.3957
240 120 1 -12.847026173649231 19.694267615240268 0.5960512401338567
241 121 1 -26.7501 -30.2923 -13.2166
242 121 1 -26.93798608945734 -30.63587903906799 -13.434121957996643
243 122 1 -26.6998 -27.6876 -16.4112
244 122 1 -26.57986118615711 -27.827271008368477 -17.323977995175117
245 123 1 30.5298 6.7633 16.2192
246 123 1 30.774605429547606 7.416671693823628 17.02237643686624
247 124 1 -31.133 13.1263 -35.539
248 124 1 -31.30449464427283 13.616473253667722 -35.76109211410067
249 125 1 -6.7777 23.2021 -14.5539
250 125 1 -7.725806812636434 22.995776326243405 -14.516773368907906
251 126 1 36.7188 -22.7668 -7.732
252 126 1 36.276544832246074 -21.990589338938204 -8.017265628573082
253 127 1 30.7715 30.1204 7.6217
254 127 1 29.955736007278187 29.12938031238646 7.879588373161569
255 128 1 33.3178 -14.1367 33.7842
256 128 1 33.16527417735249 -13.55010106948336 33.28045062566683
257 129 1 25.1611 -9.8465 -11.2335
258 129 1 24.33094231259831 -9.704111239471699 -12.066243473597432
259 130 1 -24.5218 -13.5932 -6.9464
260 130 1 -25.3951290673896 -14.378520985687336 -6.513111208541905
261 131 1 4.5053 -23.9789 -20.5846
262 131 1 4.441706350958918 -24.004599358451994 -21.31146722054603
263 132 1 0.1139 45.26 -17.8479
264 132 1 -0.5643865371017062 44.931388996078425 -16.90703331358141
265 133 1 -12.8293 -4.74 39.0189
266 133 1 -13.375940468502401 -4.286735254413895 38.77339423326515
267 134 1 -3.2056 4.7747 -11.0235
268 134 1 -2.6574173944660915 5.773572373221194 -10.845514578141579
269 135 1 -0.6654 -5.8741 -21.3544
270 135 1 -0.6234991973979942 -6.0941302998412805 -20.471242621676492
271 136 1 27.3449 7.0692 -39.6741
272 136 1 26.500702635984783 6.896309123601157 -39.21814613214307
273 137 1 -30.1024 -31.1647 1.4648
274 137 1 -29.46335608086795 -31.408456929067974 0.9811612584837401
275 138 1 -26.6532 -36.1545 25.112
276 138 1 -26.47839295589418 -35.90661969960705 24.183573292708022
277 139 1 -25.2792 -9.0165 -29.5854
278 139 1 -25.560088622828296 -9.560360266572932 -30.30256782390519
279 140 1 18.5875 -24.7209 10.5649
280 140 1 18.850387306528585 -25.17845918758543 10.988020117387677
281 141 1 17.0477 6.6131 -24.4954
282 141 1 17.97218143647638 6.430352434421046 -23.582028108702684
283 142 1 -20.3861 8.8275 -36.7547
284 142 1 -20.141220284277605 9.34921859685193 -36.29607861119974
285 143 1 28.7205 37.6506 -24.5531
286 143 1 27.95969462025881 38.05256190388946 -23.635060086242294
287 144 1 -9.8444 11.4981 29.2073
288 144 1 -10.489005119398985 12.328382508294624 29.09366417299613
289 145 1 20.3534 -5.239 -2.953
290 145 1 19.989641181641304 -5.714060433179164 -2.222739148819681
291 146 1 13.9765 17.5874 -2.1103
292 146 1 13.81751250496774 17.85584181656425 -2.2735326550570765
293 147 1 17.554 -19.4537 -29.0346
294 147 1 17.016218774833796 -19.77165091293178 -29.505573046025585
295 148 1 36.2864 15.7246 -16.8252
296 148 1 36.87903700174388 15.2284628289029 -16.385001522826183
297 149 1 -7.891 14.3253 -0.8578
298 149 1 -8.763649512020361 13.799131177824352 -0.5085244297009025
299 150 1 -43.0001 33.424 33.8852
300 150 1 -43.27094178115973 33.20369951341853 33.43777527867842
301 151 1 -10.7641 4.9884 -23.7872
302 151 1 -11.189521801427498 5.689666375343863 -23.78941139680931
303 152 1 24.7237 33.4987 5.0893
304 152 1 23.753033749565137 32.77153111936389 4.474562935977153
305 153 1 -28.2457 27.7944 -28.1386
306 153 1 -28.880957073894276 27.159315138766633 -28.757118094546946
307 154 1 -5.887 24.9238 9.6708
308 154 1 -5.327505790892987 24.97555038259226 8.911684191808863
309 155 1 -0.3714 30.9914 -8.5341
310 155 1 0.1140919745638655 30.237006518046968 -8.385382064176051
311 156 1 -7.1891 -16.4263 20.8845
312 156 1 -7.262561700356659 -17.08080358311931 20.928792934932293
313 157 1 -36.3784 6.7454 27.0649
314 157 1 -36.1763830708284 6.544761553165415 27.726887006516282
315 158 1 -26.0845 -44.9169 -1.8167
316 158 1 -27.007821350138386 -45.87763360890085 -2.313077219977762
317 159 1 -12.1319 3.777 18.5381
318 159 1 -12.453448001733618 2.981793724242166 19.169768981387108
319 160 1 20.8855 9.124 -31.8304
320 160 1 20.77960420232707 9.864957546710915 -31.01945564943625
321 161 1 -34.4573 -14.3629 1.1816
322 161 1 -34.634189717357806 -14.199287061140616 2.1038041967437944
323 162 1 -28.3885 -3.7495 1.4283
324 162 1 -29.20352747419776 -4.526764157967735 2.176522366008811
325 163 1 -9.5779 -16.0896 -1.3216
326 163 1 -9.789950115677089 -16.970132073253342 -2.099970123816001
327 164 1 -1.9202 25.6344 30.0633
328 164 1 -2.365352797786976 25.399462350182105 30.808582089526663
329 165 1 -5.8866 -16.9684 11.3809
330 165 1 -5.857582310255265 -17.45339069994991 12.258609939066018
331 166 1 33.9634 -8.3732 -6.3921
332 166 1 34.75764467998254 -8.668797707390208 -5.723084628132447
333 167 1 -41.2695 13.9743 41.8835
334 167 1 -41.29364219064172 13.696770813783594 42.36712959806781
335 168 1 15.6843 -2.0765 32.1869
336 168 1 14.872192677103357 -1.73049573602705 31.203538151057685
337 169 1 10.8737 -14.7457 -0.2189
338 169 1 11.405678038300156 -15.251194752973221 -0.8369980101394573
339 170 1 39.5606 -48.4325 -5.4447
340 170 1 38.77670637220777 -49.17172627065899 -5.491433672883
341 171 1 22.6384 5.7663 14.6802
342 171 1 23.242507433362082 5.505730575891118 14.101950211223636
343 172 1 -12.3218 -11.788 28.5765
344 172 1 -11.471204174281594 -10.806757830316956 28.45281930770216
345 173 1 -35.5033 33.4087 13.603
346 173 1 -35.43083216312461 33.93980411864268 12.890247235221052
347 174 1 28.3182 -11.4431 2.6982
348 174 1 28.1697270211536 -10.765822517550697 2.387621459569834
349 175 1 -16.6835 3.8973 -23.2279
350 175 1 -17.585990999572925 3.1865573352143155 -23.685849572422892
351 176 1 20.4596 24.4804 -20.0469
352 176 1 20.045321523923096 25.01215098705159 -19.55177118506111
353 177 1 -10.042 -2.7444 12.7222
354 177 1 -9.425826591991996 -3.2994404404460456 13.603715812830796
355 178 1 4.4826 21.9836 4.7805
356 178 1 3.533018823987807 22.945938240071854 5.702277715956459
357 179 1 -9.5299 22.7293 18.2778
358 179 1 -8.992847846651198 22.870259184170717 17.58488981577752
359 180 1 -24.216 5.6101 -28.5914
360 180 1 -23.385317549821615 5.976668188084011 -28.833028339735737
361 181 1 -20.3853 11.0855 -49.8226
362 181 1 -21.324275730005628 10.296978564066823 -49.26075785389052
363 182 1 -12.7017 -35.0157 13.405
364 182 1 -13.301746151672603 -35.57582638191488 13.26981044887604
365 183 1 13.7964 -23.8618 -26.0769
366 183 1 14.690894268388528 -23.56346369732706 -26.17031658065613
367 184 1 -23.71 1.6126 39.978
368 184 1 -24.287575222387506 2.134890848725326 39.10148922443705
369 185 1 12.9145 18.1411 18.8087
370 185 1 12.826964838663166 17.500473220801396 19.801953331929056
371 186 1 8.8497 -0.0487 -7.5075
372 186 1 8.90918517303508 -1.003809543622401 -8.157412327349476
373 187 1 6.2779 -3.9755 -18.1598
374 187 1 6.533592310472667 -3.449284751607919 -19.061786928077968
375 188 1 -22.6456 -17.1397 -33.7512
376 188 1 -23.270088846994803 -17.014562896587968 -33.76500323934662
377 189 1 -18.8977 4.5785 24.4759
378 189 1 -18.560737275880037 3.7998551316139024 25.07044250018091
379 190 1 32.1234 -30.664 20.1781
380 190 1 31.19982806948634 -30.19627292803453 20.299378401079174
381 191 1 33.0006 -7.5082 -34.4651
382 191 1 32.7049964852209 -8.128924002466501 -34.66696647605674
383 192 1 -36.4203 -29.651 2.3561
384 192 1 -35.65581848463942 -29.791626488638624 1.5930958064066931
385 193 1 14.267 -12.7553 -4.0789
386 193 1 13.748202499861831 -12.299755698834417 -5.060680229101433
387 194 1 -8.9133 0.619 27.3709
388 194 1 -7.954074011032465 0.8839533571246951 28.309571215358854
389 195 1 11.1705 38.3703 8.6667
390 195 1 10.843242444950004 37.54059318430456 8.732997781124938
391 196 1 23.5391 9.2188 10.2271
392 196 1 24.423774357788268 10.038870543993271 11.160794528628463
393 197 1 -1.0888 -8.6119 26.7847
394 197 1 -1.7895453340226668 -8.106865099665137 26.42508300523784
395 198 1 -36.0763 -42.1648 38.8453
396 198 1 -36.33081411400653 -41.17401358381066 39.131709137868896
397 199 1 12.3706 28.2812 -10.1655
398 199 1 13.122832186895081 27.390876231460883 -10.14589053928534
399 200 1 43.9258 -10.9637 -12.1617
400 200 1 43.64841718814714 -11.022449797297192 -12.680692941933689
401 201 1 22.9146 -42.2144 -38.5318
402 201 1 22.38447791746936 -42.29132431364615 -37.68702237286804
403 202 1 -20.8719 22.1091 13.6094
404 202 1 -21.43519359560635 22.296687477674016 13.03460219534583
405 203 1 -18.6888 27.2332 8.671
406 203 1 -18.12704810628189 26.416342496401203 8.091878316537962
407 204 1 -15.5932 -42.3773 24.936
408 204 1 -15.330086914966063 -43.28075764701663 25.10517982428521
409 205 1 39.9604 9.31 -2.131
410 205 1 38.97374932287359 10.116264146030618 -1.4932581734679662
411 206 1 0.7146 -27.6669 -12.9673
412 206 1 0.8186275467656695 -28.40537417840622 -13.572808211690475
413 207 1 -13.3019 15.1641 10.6058
414 207 1 -13.557421477380895 15.65734609159616 10.274291933661575
415 208 1 -11.9716 -17.1164 -23.4088
416 208 1 -11.736718695663415 -16.511277000446334 -24.401692308243753
417 209 1 -10.5142 38.9667 -13.9219
418 209 1 -10.958966464388263 38.17726715413587 -14.796833420576693
419 210 1 38.7483 -1.7524 -2.5944
420 210 1 39.30106429784868 -2.1273407998842018 -2.9745170909077903
421 211 1 4.634 15.6768 -26.5536
422 211 1 3.7779462610039216 15.310076705836025 -26.855040113406186
423 212 1 -36.5032 -29.9646 17.3613
424 212 1 -35.96693765954409 -29.332302389714478 16.860408458304097
425 213 1 -20.7061 25.4949 -32.5027
426 213 1 -20.04609567374443 25.325317138064307 -32.281970239811784
427 214 1 -21.7143 -23.6066 26.2666
428 214 1 -21.773106579713485 -23.900617856934307 25.48221106104118
429 215 1 -5.4342 -30.6127 6.4219
430 215 1 -6.213319743766065 -30.928885593999457 6.932048344393635
431 216 1 25.969 -3.4889 -0.325
432 216 1 26.912843318632227 -2.6542353864339883 -0.8387258469594547
433 217 1 -5.8355 13.8282 -36.0809
434 217 1 -6.337167627296628 13.454014187849141 -36.989253737899155
435 218 1 -17.3369 -0.5637 -8.9187
436 218 1 -16.802895304199435 -0.5497503547037162 -9.253256194271643
437 219 1 23.9039 -33.9099 7.3859
438 219 1 24.261049755983514 -33.819512348485716 8.167109237646475
439 220 1 -22.2042 10.3123 -8.5835
440 220 1 -21.288827341805092 11.062274514745543 -7.927965560054076
441 221 1 14.1189 35.9745 -24.2621
442 221 1 14.458148279759968 35.092226120095205 -25.059622344067073
443 222 1 28.1679 -26.6543 0.1311
444 222 1 28.179233480595805 -26.36055756953252 -0.7714290969979183
445 223 1 -23.3273 -1.8474 -40.6885
446 223 1 -23.65956746482396 -2.3428597888208067 -40.010986501236516
447 224 1 7.3314 -6.0923 -33.7723
448 224 1 7.8543213741921 -6.17240784303628 -33.19146916840133
449 225 1 9.1509 -14.2882 -22.9204
450 225 1 8.642710858915319 -13.326795603677187 -22.76922932779636
451 226 1 33.7467 13.4047 30.7471
452 226 1 33.596059779446634 12.541448097838533 29.90391232935278
453 227 1 21.725 26.4251 12.7354
454 227 1 22.32005978174665 26.51979728515714 12.920449073727564
455 228 1 15.4313 2.0642 19.6689
456 228 1 15.277374758904617 3.000154942409389 19.388156706361034
457 229 1 34.8566 14.3628 5.8698
458 229 1 35.53917873744922 15.00189412218257 4.878392709616744
459 230 1 -0.488 27.1519 23.2232
460 230 1 -0.9330826557761986 26.519546152943278 22.802182244772666
461 231 1 2.6164 -15.9375 18.6064
462 231 1 2.0802015418201174 -16.16443891843393 18.83950419034139
463 232 1 5.4628 -22.0393 -3.3637
464 232 1 6.446653078096865 -22.591941241377135 -3.844942585666833
465 233 1 -6.5124 24.3064 -26.937
466 233 1 -7.460710475602678 23.384958096844482 -26.328461524517458
467 234 1 21.0436 18.8933 35.4467
468 234 1 20.80651240105744 19.591971896780187 34.47622522769855
469 235 1 34.6717 11.8265 17.3237
470 235 1 35.0604128121775 12.514010829799659 17.350402401799375
471 236 1 16.1167 24.977 43.5519
472 236 1 16.41327933801286 24.55131678221531 43.51563106619639
473 237 1 -18.494 -24.1903 31.999
474 237 1 -17.60092625863507 -24.077705323647752 31.72689964891865
475 238 1 34.601 -19.9295 -12.3069
476 238 1 35.01322643066773 -20.820083125293294 -13.122997276339516
477 239 1 -27.601 -1.5519 -6.2715
478 239 1 -27.74405439898538 -1.7522285719559807 -6.936598507249253
479 240 1 -13.7672 -31.0007 1.206
480 240 1 -13.882255780814068 -30.48230799799195 1.414792517685713
481 241 1 27.8425 -5.2013 34.7607
482 241 1 27.747753878274704 -6.123232627200117 34.37619164342013
483 242 1 -5.1409 9.3724 -25.7462
484 242 1 -5.568941229274703 9.01430844438526 -25.342727579312733
485 243 1 -19.4571 -13.3471 11.1965
486 243 1 -20.386343013099367 -12.86957285455657 10.845520610667322
487 244 1 28.1336 -7.6698 6.8484
488 244 1 27.749123690327558 -6.909734178529742 6.618791432452222
489 245 1 8.9521 -17.987 -2.5136
490 245 1 9.519894342454196 -18.16900562700735 -1.6184165706068663
491 246 1 18.2944 -39.5118 -10.0134
492 246 1 18.13460457854661 -38.93865421765229 -10.825332331215511
493 247 1 -38.1115 16.2885 -7.9708
494 247 1 -37.812220917226526 17.226115778307484 -7.310052328682147
495 248 1 -17.0011 -24.8946 -22.8275
496 248 1 -16.297076710626584 -25.574855376086333 -23.36785936748996
497 249 1 -29.2616 -10.9862 -23.1419
498 249 1 -29.81568388974789 -10.58651744390844 -22.47402377467022
499 250 1 -2.7632 35.7783 -5.5832
500 250 1 -2.0174064862408745 36.272420295963514 -5.9369690481908
501 251 1 15.6082 20.0033 4.4844
502 251 1 14.751612642167688 20.715405256977792 4.884845013481796
503 252 1 -19.3715 -13.3629 -26.4575
504 252 1 -19.732798846971626 -12.477448671309414 -26.52369055666988
505 253 1 27.0949 25.2223 -38.3079
506 253 1 26.692250282124753 25.30249451444739 -39.24229803098546
507 254 1 27.4694 -20.874 -15.5365
508 254 1 26.514024296060075 -21.388868962422872 -15.586527189020288
509 255 1 -16.3806 45.7431 -35.7861
510 255 1 -15.42742207067531 45.58638733165651 -36.52823785801667
511 256 1 1.9074 39.3088 -30.0329
512 256 1 2.054739335736755 39.97592926759986 -29.619606619497794
513 257 1 31.865 -29.187 -18.4175
514 257 1 32.68045094121375 -28.23922812969977 -19.16577125914336
515 258 1 -10.9668 -26.9521 -17.5397
516 258 1 -10.644593223497656 -27.190213730465313 -16.98167218796289
517 259 1 -11.2747 -7.2708 16.2643
518 259 1 -12.075311399760782 -6.354840630739403 17.23801778340663
519 260 1 -29.5836 16.0048 31.6233
520 260 1 -30.17909886882854 16.839591007695482 32.50922273228626
521 261 1 -32.0514 -29.1469 -4.9025
522 261 1 -31.440501406416825 -28.614138487615275 -4.327057644586461
523 262 1 -23.9156 29.8074 -41.2433
524 262 1 -24.45881794038647 29.59455049024934 -40.29207390037868
525 263 1 -29.5772 24.8347 -11.9226
526 263 1 -29.38049191888431 24.346718113470573 -11.583613374175256
527 264 1 24.1201 0.442 -35.3213
528 264 1 23.948030917409124 1.2569114557788195 -34.48586644060544
529 265 1 -18.8783 2.8844 -13.6594
530 265 1 -18.3376263687532 3.7194647493716166 -13.276245590112659
531 266 1 -39.6472 36.3079 23.1826
532 266 1 -39.71569714999635 35.548633690950744 23.010904763936573
533 267 1 -29.0103 5.2622 8.6036
534 267 1 -29.010330719208266 5.104652390738069 8.337125341760053
535 268 1 30.3714 -28.8823 -32.6657
536 268 1 30.261823342794717 -29.016531765652058 -33.17020680793242
537 269 1 -4.4448 32.4722 20.4212
538 269 1 -3.9281621768831974 33.09558608094297 20.645713857612215
539 270 1 -6.7559 27.9201 -16.875
540 270 1 -6.070793543781629 28.0840311115206 -17.349948484716375
541 271 1 -30.5729 28.2347 44.2944
542 271 1 -30.81800441745148 28.79332683842071 45.188834131813934
543 272 1 16.2698 1.8069 -0.9866
544 272 1 16.17804689567277 1.9171605053945173 -0.8156392166865297
545 273 1 0.2804 16.8877 20.3264
546 273 1 -0.1945926718441573 15.900535376402965 19.580345795261994
547 274 1 37.1613 -22.1021 21.4676
548 274 1 37.43985052164695 -21.96100419270861 21.10154835500958
549 275 1 -7.1992 -3.2611 -25.4873
550 275 1 -7.6821988186162615 -3.312536267415936 -25.402744758615974
551 276 1 12.6297 33.2916 16.7938
552 276 1 11.744170939962048 33.87709060648447 17.054362159247866
553 277 1 11.705 -25.4329 9.1177
554 277 1 12.562779368831007 -25.905889943339158 9.627533439227305
555 278 1 -5.8354 -15.4935 -15.4414
556 278 1 -5.923501345586013 -14.73010049732395 -16.431819390595503
557 279 1 13.3462 39.1135 -0.8651
558 279 1 14.010948853188564 39.17098704589104 0.06298796089108571
559 280 1 -49.1219 -20.0709 18.1866
560 280 1 -50.0 -19.636713182299033 17.80444990806355
561 281 1 -25.4714 16.0497 15.0235
562 281 1 -26.059479355966765 16.315914159939666 15.843399418564166
563 282 1 22.591 7.3771 -22.9962
564 282 1 21.64414748138088 7.823710625960456 -23.497627978232735
565 283 1 14.9173 -13.7031 13.9764
566 283 1 15.798669669477912 -14.274905842503264 13.186263287434143
567 284 1 -43.9379 -5.9509 27.4416
568 284 1 -44.383393856852045 -5.520775592718193 26.742040053316966
569 285 1 -7.5834 35.5404 -44.6503
570 285 1 -7.746943887235425 34.91348337209963 -44.69266924526988
571 286 1 -23.2828 24.046 -36.9267
572 286 1 -23.634484773706944 24.860402699049278 -36.52039657780662
573 287 1 -32.7568 39.8152 22.7185
574 287 1 -32.1198774797063 39.59958167206381 22.242001296464302
575 288 1 -27.4754 41.2951 -22.6077
576 288 1 -28.310523491495296 41.92051593544551 -22.236556179321347
577 289 1 8.7692 -28.0313 15.6895
578 289 1 9.00558079735398 -28.639416656210948 16.31186975996695
579 290 1 -23.553 13.5148 -18.0768
580 290 1 -22.75058551891407 13.800377042774873 -17.99039518835369
581 291 1 12.2172 16.3695 -6.9993
582 291 1 11.420694980864386 16.09980005383832 -7.052269573633899
583 292 1 -11.1634 32.9795 5.4211
584 292 1 -10.600558758005775 33.767632380656686 5.506326383473699
585 293 1 -27.8227 -2.2437 12.463
586 293 1 -28.103125054338488 -2.619238140005953 11.653911489666262
587 294 1 -12.6644 -10.5841 -30.5252
588 294 1 -13.443676677282946 -11.475373410555102 -30.257172737004268
589 295 1 -9.5713 -38.5329 7.8527
590 295 1 -9.441004249287946 -38.87585891929445 8.846414182642427
591 296 1 -5.5574 -21.5186 -38.0578
592 296 1 -4.566844511966499 -22.314234316869594 -38.86852717989189
593 297 1 4.6876 -43.2399 3.7795