LAMMPS UA chain data file

1200 atoms
900 bonds
600 angles
300 dihedrals

1 atom types
1 bond types
1 angle types
1 dihedral types

-23.471697 23.471697 xlo xhi
-23.471697 23.471697 ylo yhi
-23.471697 23.471697 zlo zhi

Masses

1 17.0

Atoms

1 1 1 -18.1549 -21.9573 -18.7089
2 1 1 -18.646 -22.0704 -18.6115
3 1 1 -17.6333 -22.5591 -18.4435
4 1 1 -17.3845 -22.8266 -18.3925
5 2 1 -12.8825 -20.9728 -20.6821
6 2 1 -13.6452 -21.9419 -21.6125
7 2 1 -12.4412 -21.4583 -21.0847
8 2 1 -13.4369 -22.377 -21.9494
9 3 1 -6.5457 -18.4856 -17.7715
10 3 1 -6.7057 -18.49 -17.1473
11 3 1 1.8943 -18.984 -20.8753
12 3 1 1.145 -18.7742 -21.4797
13 4 1 2.4729 -19.8586 -20.2921
14 4 1 2.8301 -19.3209 -19.5734
15 4 1 13.1714 -22.0991 -20.5176
16 4 1 12.438 -22.0303 -20.8559
17 5 1 13.4871 -21.9471 -20.8664
18 5 1 12.5338 -21.2028 -20.0779
19 5 1 17.4634 -20.7821 -21.91
20 5 1 16.735 -20.4551 -22.632
21 6 1 17.0708 -20.5526 -22.9026
22 6 1 16.8158 -19.8212 -22.7991
23 6 1 21.3557 -17.8549 -21.215
24 6 1 21.0057 -17.5776 -21.0758
25 7 1 -21.8091 -13.7474 -17.9957
26 7 1 -21.3147 -13.1931 -17.7657
27 7 1 -21.4207 -12.8454 -17.6306
28 7 1 -22.247 -13.384 -17.9322
29 8 1 -18.7561 -17.0866 -18.7408
30 8 1 -18.4446 -17.667 -18.9748
31 8 1 -18.0909 -16.3519 -18.0214
32 8 1 -18.714 -15.6614 -18.6908
33 9 1 -13.1143 -12.7628 -17.6757
34 9 1 -12.5153 -12.5686 -18.3492
35 9 1 12.9933 -13.2003 -19.7747
36 9 1 13.9382 -14.0276 -18.8365
37 10 1 12.0183 -13.6142 -20.5761
38 10 1 11.7357 -13.2514 -20.5822
39 10 1 16.8611 -14.7581 -18.255
40 10 1 16.8702 -14.5298 -17.4547
41 11 1 17.562 -15.0589 -18.7018
42 11 1 17.6353 -14.3204 -19.4281
43 11 1 20.9656 -17.4105 -20.3209
44 11 1 20.3372 -17.7635 -21.2603
45 12 1 19.9515 -14.1232 -18.2424
46 12 1 19.4402 -14.8682 -17.7114
47 12 1 20.6257 -14.8205 -19.171
48 12 1 19.9466 -14.1163 -20.1528
49 13 1 -11.2373 -7.5932 -20.712
50 13 1 -12.0064 -6.8436 -20.1432
51 13 1 -11.7333 -7.7193 -21.5093
52 13 1 -11.7377 -8.3574 -22.2884
53 14 1 -0.8632 -7.4049 -23.2917
54 14 1 -1.3451 -8.2326 -23.8073
55 14 1 21.3874 -6.5055 -20.44
56 14 1 22.2095 -7.4245 -20.347
57 15 1 22.4221 -10.5447 -17.696
58 15 1 22.336 -11.3996 -17.6237
59 15 1 -19.9175 -5.1582 -22.6923
60 15 1 -19.2457 -5.2163 -23.5311
61 16 1 -19.5337 -4.352 -23.3965
62 16 1 -20.5172 -4.0624 -22.9124
63 16 1 -0.4637 -1.9506 -23.0486
64 16 1 -0.2793 -2.5655 -22.9693
65 17 1 5.6239 -0.8394 -19.9601
66 17 1 5.371 -0.1709 -20.306
67 17 1 0.3807 -2.1385 -22.966
68 17 1 -0.1951 -2.2537 -23.1389
69 18 1 5.4229 -1.2117 -19.501
70 18 1 6.3394 -1.4513 -19.1077
71 18 1 4.6157 -1.8951 -19.8904
72 18 1 3.741 -2.0511 -19.2684
73 19 1 16.0231 -1.4919 -23.2373
74 19 1 16.3261 -0.7268 -22.3503
75 19 1 16.4697 -0.5954 -23.1781
76 19 1 17.1553 0.3612 -24.1464
77 20 1 21.2964 -5.5434 -19.6849
78 20 1 21.0903 -4.9547 -19.5071
79 20 1 -23.2816 3.8949 -20.5804
80 20 1 -23.7142 4.2171 -20.1729
81 21 1 -23.0741 3.8544 -21.157
82 21 1 -22.9685 4.2672 -21.7448
83 21 1 -20.0207 0.2779 -19.6889
84 21 1 -20.6078 -0.4578 -19.1461
85 22 1 -19.8116 1.2233 -19.0638
86 22 1 -19.875 0.9024 -19.234
87 22 1 -21.6948 1.1127 -17.948
88 22 1 -22.2147 1.4399 -18.8711
89 23 1 -21.6527 0.1608 -17.8118
90 23 1 -21.7797 -0.05 -17.7615
91 23 1 -6.7496 3.6997 -20.8651
92 23 1 -7.2739 4.5144 -20.4036
93 24 1 -7.2747 3.2875 -20.2864
94 24 1 -8.0129 3.2994 -21.0372
95 24 1 -7.8078 5.7084 -18.058
96 24 1 -8.7027 5.1218 -17.8928
97 25 1 -7.2786 4.735 -18.4985
98 25 1 -6.5997 4.2023 -18.8972
99 25 1 -7.5511 4.5114 -22.6671
100 25 1 -7.1186 3.8312 -22.5746
101 26 1 -7.6902 5.4657 -22.6178
102 26 1 -7.4138 4.6242 -22.6969
103 26 1 -10.0054 3.7237 -17.7044
104 26 1 -9.362 4.0002 -17.4705
105 27 1 5.9853 0.0861 -19.9084
106 27 1 6.3546 0.7834 -20.1424
107 27 1 18.3216 2.0052 -21.797
108 27 1 17.6746 1.7223 -21.8055
109 28 1 17.9745 1.9131 -21.2056
110 28 1 18.7285 1.0784 -21.0965
111 28 1 -19.7342 6.6247 -23.2314
112 28 1 -19.0167 6.647 -22.5799
113 29 1 -19.882 7.5035 -22.7954
114 29 1 -20.6049 8.3493 -22.8855
115 29 1 -13.0581 8.5826 -22.7724
116 29 1 -12.2498 7.9067 -23.0126
117 30 1 -13.5816 8.1155 -22.5059
118 30 1 -13.7291 7.2426 -21.882
119 30 1 -9.516 7.1246 -21.4291
120 30 1 -9.354 6.9222 -21.5189
121 31 1 -9.8919 7.7242 -21.9648
122 31 1 -9.0579 7.7423 -22.9646
123 31 1 -8.6129 8.0419 -22.804
124 31 1 -8.2096 7.8129 -23.3602
125 32 1 -0.3604 10.4393 -19.5882
126 32 1 -1.336 11.0811 -19.3072
127 32 1 0.4799 9.8812 -20.5126
128 32 1 0.8428 9.075 -19.7104
129 33 1 7.7359 9.7766 -22.7335
130 33 1 6.8297 9.2948 -22.4677
131 33 1 8.0255 9.7786 -23.2728
132 33 1 8.1326 10.719 -22.9252
133 34 1 14.8551 9.2264 -18.5962
134 34 1 14.7851 9.5455 -19.1621
135 34 1 14.2818 9.6105 -19.0353
136 34 1 14.9553 10.0297 -19.1271
137 35 1 -11.2024 14.7025 -22.1375
138 35 1 -10.9047 15.3556 -22.3278
139 35 1 -10.9384 15.3044 -21.2051
140 35 1 -10.3039 15.5283 -22.0642
141 36 1 -0.0163 17.0259 -23.2236
142 36 1 -0.6846 16.3857 -22.8131
143 36 1 0.4028 16.6413 -23.0278
144 36 1 0.6875 16.9027 -22.0839
145 37 1 13.5186 15.5053 -18.4892
146 37 1 13.5563 15.0316 -18.8177
147 37 1 13.2982 15.2692 -18.8849
148 37 1 13.1839 14.6538 -18.8981
149 38 1 -18.8189 23.3652 -19.2185
150 38 1 -19.0079 23.019 -19.2225
151 38 1 -17.9808 23.3421 -20.0775
152 38 1 -18.3047 22.7984 -19.4005
153 39 1 -15.2022 19.2757 -21.0928
154 39 1 -15.6522 19.9702 -21.8233
155 39 1 -14.3475 20.1757 -20.6157
156 39 1 -14.0674 19.4229 -20.0087
157 40 1 17.8366 18.1715 -18.3301
158 40 1 18.0394 17.86 -18.062
159 40 1 -7.4 -18.4783 -16.4645
160 40 1 -6.693 -18.0045 -17.3187
161 41 1 -6.4019 -18.6556 -16.2921
162 41 1 -7.2148 -19.326 -16.6243
163 41 1 -1.6574 -23.0254 -15.5599
164 41 1 -1.2374 -23.8135 -15.2897
165 42 1 -1.831 -23.1074 -16.1852
166 42 1 -0.9455 -23.6934 -17.0074
167 42 1 -5.8399 -18.9316 -17.303
168 42 1 -5.0418 -19.3487 -18.1601
169 43 1 1.2398 -19.2693 -16.9446
170 43 1 0.6512 -19.256 -16.2614
171 43 1 0.2672 -19.4486 -17.3942
172 43 1 -0.1432 -19.7962 -16.9481
173 44 1 8.9495 -18.9217 -14.0407
174 44 1 9.9388 -19.2703 -13.7131
175 44 1 8.5929 -19.0041 -13.6212
176 44 1 7.7568 -19.4153 -13.1351
177 45 1 8.1206 -18.3179 -16.4823
178 45 1 8.0241 -18.2123 -16.3894
179 45 1 7.9514 -17.8215 -15.5676
180 45 1 8.2384 -17.5748 -14.5698
181 46 1 14.2876 -18.0191 -14.6014
182 46 1 14.7293 -18.4801 -13.9505
183 46 1 18.5774 -21.1513 -13.1599
184 46 1 18.6274 -20.96 -13.1323
185 47 1 18.7151 -21.2522 -13.1505
186 47 1 18.931 -21.8523 -13.609
187 47 1 -19.0351 -14.5883 -12.1179
188 47 1 -18.9827 -14.5678 -12.8594
189 48 1 -18.5177 -14.7668 -11.8198
190 48 1 -18.7649 -14.3708 -12.0649
191 48 1 -12.7563 -13.6086 -17.0203
192 48 1 -13.4443 -13.7219 -17.5414
193 49 1 1.9798 -11.7776 -13.2684
194 49 1 2.7863 -10.9521 -13.2663
195 49 1 1.001 -12.1667 -12.8092
196 49 1 0.8138 -11.2151 -12.2124
197 50 1 14.8044 -17.3826 -14.48
198 50 1 14.7737 -16.6145 -14.05
199 50 1 -18.8824 -6.976 -16.968
200 50 1 -17.8844 -7.1334 -17.9358
201 51 1 -18.4191 -6.7244 -16.6928
202 51 1 -17.495 -7.5134 -17.2366
203 51 1 5.3691 -7.6788 -16.4005
204 51 1 5.0162 -6.8588 -15.518
205 52 1 9.0345 -6.0397 -13.7571
206 52 1 9.0431 -6.6748 -13.3015
207 52 1 6.056 -8.4963 -17.3475
208 52 1 6.8473 -9.3242 -18.0165
209 53 1 22.8456 -9.9874 -16.9091
210 53 1 23.3926 -10.3856 -16.2914
211 53 1 -4.9986 -3.4329 -12.9264
212 53 1 -4.0314 -2.5167 -13.81
213 54 1 -5.8399 -3.9212 -13.7559
214 54 1 -6.4491 -3.4508 -13.7131
215 54 1 -5.8308 -5.4138 -15.2619
216 54 1 -5.3623 -6.2013 -14.2768
217 55 1 -4.8504 -4.8988 -14.288
218 55 1 -5.788 -4.8114 -13.9643
219 55 1 0.3912 -0.4509 -15.5393
220 55 1 -0.2703 -0.208 -15.5738
221 56 1 1.2446 -0.1892 -15.8004
222 56 1 2.2381 -0.3829 -16.1834
223 56 1 3.4516 -0.942 -15.1013
224 56 1 2.6171 -0.2885 -15.732
225 57 1 2.9672 -1.1187 -14.1489
226 57 1 2.4416 -1.6363 -14.3486
227 57 1 9.8097 -5.8499 -12.8843
228 57 1 9.7039 -5.4324 -13.8842
229 58 1 14.6511 -0.2487 -12.5758
230 58 1 13.6955 0.4381 -11.7942
231 58 1 15.6249 -0.7336 -12.4909
232 58 1 16.4806 -0.4825 -12.1039
233 59 1 19.5447 -3.1728 -16.6504
234 59 1 19.4776 -3.4813 -15.8369
235 59 1 18.8376 -3.7796 -16.9823
236 59 1 18.0777 -3.5251 -16.2501
237 60 1 21.2042 -4.5596 -12.9723
238 60 1 20.5947 -4.1689 -12.4811
239 60 1 21.3737 -5.0345 -13.5968
240 60 1 21.5086 -4.6633 -14.548
241 61 1 -17.9653 4.9393 -13.3866
242 61 1 -18.1567 5.6752 -13.9262
243 61 1 -17.7675 5.5881 -12.4015
244 61 1 -18.2475 5.8787 -12.8165
245 62 1 -9.5294 2.8698 -16.7327
246 62 1 -10.459 3.7122 -17.0261
247 62 1 -2.6214 3.4818 -14.9852
248 62 1 -3.2151 4.3069 -15.5581
249 63 1 -3.2165 3.4244 -14.5472
250 63 1 -3.5933 3.1915 -14.6332
251 63 1 8.0737 4.6043 -14.0537
252 63 1 8.7275 5.4774 -14.3617
253 64 1 8.8122 4.2053 -13.9197
254 64 1 9.7999 3.3941 -14.7211
255 64 1 10.7889 3.9453 -16.7154
256 64 1 11.589 4.6704 -16.0654
257 65 1 11.096 3.2513 -16.5556
258 65 1 11.6846 4.2447 -17.0889
259 65 1 -5.1681 9.1919 -14.6031
260 65 1 -5.3906 8.627 -14.6116
261 66 1 -4.8956 8.8495 -14.052
262 66 1 -4.0745 9.5141 -13.8744
263 66 1 -3.2342 11.2605 -16.9899
264 66 1 -4.1 11.5226 -17.1753
265 67 1 -2.9952 11.436 -17.3095
266 67 1 -3.7438 11.5479 -17.6336
267 67 1 -3.1204 8.4598 -14.7408
268 67 1 -2.5836 8.7473 -13.9502
269 68 1 -2.2797 8.2669 -13.8556
270 68 1 -1.7502 7.5454 -13.8976
271 68 1 4.3249 7.7706 -11.9879
272 68 1 4.2416 7.9481 -12.1716
273 69 1 4.596 6.8435 -12.0929
274 69 1 3.6086 7.8236 -11.1773
275 69 1 5.622 8.3953 -11.9804
276 69 1 5.6944 7.9376 -11.3154
277 70 1 -2.9004 15.2769 -16.5827
278 70 1 -2.316 15.0549 -16.5426
279 70 1 -3.332 16.1216 -16.8878
280 70 1 -3.5581 15.1534 -17.1288
281 71 1 3.3411 12.2108 -13.8519
282 71 1 4.0799 11.3036 -14.8071
283 71 1 3.608 11.9197 -13.4466
284 71 1 2.7115 12.1453 -12.6737
285 72 1 11.1061 15.9328 -11.7835
286 72 1 11.5475 15.9527 -11.3859
287 72 1 12.0026 16.5791 -12.2726
288 72 1 11.5905 16.6959 -11.6781
289 73 1 13.4857 14.4015 -13.0766
290 73 1 14.4666 13.5092 -13.6281
291 73 1 12.8046 13.5511 -12.852
292 73 1 13.7252 13.4454 -12.0844
293 74 1 18.6267 16.072 -13.5501
294 74 1 18.6826 16.8049 -12.579
295 74 1 18.511 15.5891 -14.3493
296 74 1 17.7723 15.0674 -15.1388
297 75 1 -14.3354 23.069 -15.2904
298 75 1 -15.3223 23.6352 -15.6774
299 75 1 -13.6021 23.0343 -15.4408
300 75 1 -13.3927 23.7806 -15.727
301 76 1 -13.6492 20.688 -14.8142
302 76 1 -14.6253 20.9977 -14.7972
303 76 1 -13.4762 20.7779 -14.7834
304 76 1 -13.6253 19.9574 -13.8113
305 77 1 -8.1376 22.4134 -11.9409
306 77 1 -8.5966 21.6748 -11.9841
307 77 1 -7.869 21.8596 -12.176
308 77 1 -7.6333 22.1031 -11.2136
309 78 1 -4.5957 17.7492 -12.0194
310 78 1 -4.205 17.1346 -12.8627
311 78 1 -1.7534 21.8877 -15.3814
312 78 1 -1.4479 22.7867 -14.9589
313 79 1 -2.0529 20.9294 -15.7039
314 79 1 -2.33 21.3502 -16.2952
315 79 1 5.9497 21.6134 -13.8704
316 79 1 6.7152 22.0986 -14.5876
317 80 1 5.9726 21.8635 -14.536
318 80 1 5.6948 21.2722 -14.7521
319 80 1 10.9222 23.4287 -14.7749
320 80 1 10.4183 23.137 -14.8919
321 81 1 11.6435 23.0257 -15.5973
322 81 1 12.5769 22.2394 -15.5356
323 81 1 18.5407 18.9913 -17.3765
324 81 1 18.8812 19.1549 -16.5685
325 82 1 -18.6364 -18.5163 -9.001
326 82 1 -18.8934 -19.4063 -8.5451
327 82 1 -19.3087 -17.7869 -8.2661
328 82 1 -20.0166 -18.6138 -8.2136
329 83 1 -21.438 -22.4073 -6.7068
330 83 1 -20.6012 -22.6305 -6.5004
331 83 1 -14.7401 -21.4226 -7.4937
332 83 1 -14.7325 -21.0999 -7.4473
333 84 1 -13.8131 -20.723 -8.2356
334 84 1 -14.6857 -19.8417 -7.4879
335 84 1 -16.3889 -19.9924 -9.1532
336 84 1 -16.9904 -20.3522 -9.9082
337 85 1 -16.9957 -20.4541 -8.5223
338 85 1 -16.3174 -21.149 -8.1442
339 85 1 -10.9086 -20.9441 -10.0065
340 85 1 -11.6031 -21.4821 -10.5392
341 86 1 -10.9116 -21.3834 -9.9851
342 86 1 -11.9067 -20.6815 -10.9103
343 86 1 10.7207 -20.0105 -6.0423
344 86 1 10.3967 -19.1339 -6.5092
345 87 1 9.8201 -19.9852 -6.9824
346 87 1 10.7813 -19.1478 -7.2927
347 87 1 6.5916 -19.5301 -11.4919
348 87 1 6.8383 -19.1898 -11.0076
349 88 1 7.2566 -18.9627 -10.8656
350 88 1 7.723 -18.3619 -10.7168
351 88 1 10.6107 -21.3608 -9.3529
352 88 1 11.439 -21.0269 -10.2803
353 89 1 10.7226 -21.8607 -10.0473
354 89 1 9.918 -20.9397 -9.0871
355 89 1 19.468 -21.593 -5.9036
356 89 1 19.9633 -22.08 -6.193
357 90 1 20.3354 -19.924 -8.9712
358 90 1 20.852 -20.1839 -7.9885
359 90 1 21.1126 -19.8237 -9.6523
360 90 1 21.5868 -20.6764 -9.7184
361 91 1 -10.0749 -13.9432 -8.0254
362 91 1 -10.0815 -13.5063 -8.1809
363 91 1 -10.0943 -14.1483 -8.9691
364 91 1 -9.1992 -13.2386 -9.6489
365 92 1 -4.9507 -14.636 -8.5831
366 92 1 -4.973 -15.2023 -8.3311
367 92 1 -4.9426 -14.5318 -8.52
368 92 1 -5.3303 -14.5577 -9.3531
369 93 1 2.1449 -11.766 -9.3589
370 93 1 2.0223 -11.0945 -9.0958
371 93 1 7.0384 -15.2521 -6.546
372 93 1 7.7714 -14.6205 -6.4739
373 94 1 7.4238 -15.6962 -7.4843
374 94 1 6.4915 -15.963 -8.168
375 94 1 -6.3858 -11.692 -9.1367
376 94 1 -5.6502 -11.5145 -8.4002
377 95 1 -7.2601 -11.0078 -9.7804
378 95 1 -7.5534 -11.8036 -10.1883
379 95 1 -3.0034 -6.0175 -5.92
380 95 1 -2.1448 -5.43 -6.9183
381 96 1 5.0127 -8.1574 -11.689
382 96 1 4.38 -7.447 -12.3697
383 96 1 5.0172 -8.9972 -11.6553
384 96 1 4.5931 -9.2821 -11.2605
385 97 1 3.1111 -11.0284 -9.6342
386 97 1 3.1679 -10.8094 -9.3916
387 97 1 20.5276 -6.3302 -8.7504
388 97 1 19.6339 -6.6963 -9.7503
389 98 1 20.6992 -7.1059 -9.73
390 98 1 19.7947 -7.8177 -10.2525
391 98 1 -15.2946 -5.3086 -9.7769
392 98 1 -14.6192 -5.4171 -10.0737
393 99 1 -14.4724 -4.7971 -9.5229
394 99 1 -13.8362 -5.0999 -9.9988
395 99 1 -11.0936 -2.212 -8.5389
396 99 1 -10.8054 -2.1186 -9.3216
397 100 1 -11.5913 -2.9118 -7.9404
398 100 1 -11.2876 -1.9286 -7.6221
399 100 1 1.7379 -3.0724 -6.2678
400 100 1 1.3482 -2.0975 -6.7155
401 101 1 4.1871 -1.7444 -6.4106
402 101 1 5.0277 -2.4708 -5.4373
403 101 1 3.9817 -2.6892 -5.9714
404 101 1 4.4675 -3.6625 -5.9737
405 102 1 12.0338 -3.3821 -9.1685
406 102 1 12.5006 -4.317 -9.6282
407 102 1 12.0833 -4.3777 -8.8094
408 102 1 11.8927 -5.0094 -9.3416
409 103 1 13.8279 -0.8886 -10.7663
410 103 1 13.8658 -0.9929 -10.6144
411 103 1 14.7402 -1.1489 -10.2897
412 103 1 14.1319 -1.7975 -11.0289
413 104 1 -2.8155 5.7148 -8.1321
414 104 1 -2.075 5.6858 -8.4858
415 104 1 -2.5695 4.9084 -7.7802
416 104 1 -2.6879 5.2183 -8.542
417 105 1 8.7245 2.6106 -9.6979
418 105 1 7.7457 2.6204 -10.0602
419 105 1 9.3139 2.2992 -10.3516
420 105 1 8.9626 1.6353 -10.2453
421 106 1 -0.0375 7.3013 -8.5434
422 106 1 0.7156 7.0953 -7.9573
423 106 1 -0.3211 6.8256 -9.4202
424 106 1 -0.1207 6.0808 -10.0876
425 107 1 6.4598 7.461 -11.2948
426 107 1 7.0213 8.1819 -11.7457
427 107 1 13.5697 9.6251 -7.3882
428 107 1 12.9939 9.5632 -8.1281
429 108 1 13.2432 10.1192 -8.1235
430 108 1 13.1412 9.5858 -7.2667
431 108 1 -9.2035 13.7562 -8.9503
432 108 1 -8.9213 13.6598 -8.246
433 109 1 -8.8729 14.2786 -8.2363
434 109 1 -9.7985 13.445 -8.6012
435 109 1 -4.7279 17.3306 -11.0768
436 109 1 -5.398 17.9709 -11.0259
437 110 1 -1.8178 15.9669 -9.0847
438 110 1 -1.6564 15.8761 -8.242
439 110 1 -2.2769 16.5555 -9.1196
440 110 1 -2.2168 16.2956 -8.9846
441 111 1 1.3176 13.1049 -10.6209
442 111 1 0.5658 13.7177 -10.4338
443 111 1 0.9354 13.4357 -10.2474
444 111 1 0.3537 13.8185 -10.9124
445 112 1 13.0502 15.4008 -9.1579
446 112 1 13.246 14.7801 -8.2779
447 112 1 13.5696 14.8398 -9.4316
448 112 1 13.8366 15.3611 -8.6638
449 113 1 6.4811 22.1837 -7.2271
450 113 1 6.1928 23.0522 -6.372
451 113 1 6.888 22.9357 -7.3383
452 113 1 7.4655 22.822 -6.5362
453 114 1 10.0746 18.5259 -9.0125
454 114 1 9.224 19.0725 -9.7072
455 114 1 9.2358 18.6537 -9.3708
456 114 1 8.503 17.9263 -8.8072
457 115 1 13.5228 22.2228 -8.6009
458 115 1 13.3621 22.6623 -7.676
459 115 1 12.6856 22.4503 -9.3003
460 115 1 12.7739 23.2556 -8.7927
461 116 1 -23.2541 -23.2909 -0.6525
462 116 1 -22.9164 -22.9033 -0.8563
463 116 1 -21.9818 -21.9095 -5.7258
464 116 1 -22.4634 -22.5409 -6.3614
465 117 1 -7.0233 -20.5517 -0.4725
466 117 1 -6.7168 -20.9297 -0.687
467 117 1 -7.7022 -20.6216 -0.2708
468 117 1 -6.8931 -21.4374 -0.0457
469 118 1 -7.9062 -22.8991 -1.0801
470 118 1 -7.8738 -22.3813 -1.2824
471 118 1 6.2961 -23.1847 -0.9794
472 118 1 5.6556 -23.814 -0.5533
473 119 1 6.0268 -23.2218 -0.8927
474 119 1 6.8655 -23.3103 -0.1336
475 119 1 7.0385 -22.2706 -1.0759
476 119 1 7.9953 -22.4813 -0.8408
477 120 1 6.9379 -21.5598 -0.1457
478 120 1 7.9041 -22.5114 0.7279
479 120 1 16.5333 -20.9958 -4.4622
480 120 1 16.0604 -20.9562 -3.6295
481 121 1 16.0793 -21.2237 -5.0642
482 121 1 16.3853 -21.711 -5.7336
483 121 1 13.5941 -19.2573 -1.5082
484 121 1 14.5568 -18.3974 -0.7903
485 122 1 13.2487 -18.4856 -0.8433
486 122 1 12.4008 -18.1222 -1.1266
487 122 1 19.9893 -21.8822 -5.5787
488 122 1 19.1594 -22.2925 -4.6996
489 123 1 23.4057 -23.1678 -0.1979
490 123 1 24.0556 -22.9172 -0.2281
491 123 1 19.9282 -21.7205 -0.4845
492 123 1 20.4174 -22.2434 -1.4626
493 124 1 19.0566 -21.9064 -0.3499
494 124 1 18.2781 -20.9506 0.5526
495 124 1 20.151 -18.096 -1.3765
496 124 1 20.1128 -18.7602 -1.507
497 125 1 -15.4703 -17.506 -0.221
498 125 1 -15.1883 -16.6421 0.2043
499 125 1 -8.4464 -12.4022 -5.4491
500 125 1 -7.6694 -12.3726 -5.9308
501 126 1 -7.6825 -13.1962 -4.5899
502 126 1 -6.7322 -13.1779 -5.2069
503 126 1 -8.153 -15.4587 -4.1556
504 126 1 -8.5067 -15.1679 -3.8721
505 127 1 -8.4731 -16.4174 -3.6788
506 127 1 -8.884 -17.1738 -3.8292
507 127 1 4.5152 -16.4557 -0.1492
508 127 1 3.5425 -16.2554 -0.7357
509 128 1 1.1353 -17.528 -1.11
510 128 1 1.2482 -18.305 -0.188
511 128 1 2.0768 -16.7666 -1.5559
512 128 1 1.7468 -16.8168 -1.3262
513 129 1 15.9569 -15.444 -1.9949
514 129 1 15.1246 -14.9833 -2.9634
515 129 1 16.8565 -14.6051 -1.1506
516 129 1 17.7413 -13.7085 -1.0109
517 130 1 20.589 -17.2418 -1.8354
518 130 1 20.724 -16.7863 -2.7306
519 130 1 -21.9491 -11.3408 -3.5173
520 130 1 -22.0552 -11.6249 -2.5639
521 131 1 -22.8715 -10.4515 -3.1919
522 131 1 -22.2783 -9.8188 -2.2348
523 131 1 -7.9971 -11.1855 -0.6964
524 131 1 -7.1076 -10.3544 -1.1612
525 132 1 -4.9558 -10.4183 -0.1371
526 132 1 -4.0239 -9.4846 -0.8098
527 132 1 -2.3696 -6.7422 -4.9606
528 132 1 -2.8073 -6.0784 -4.2679
529 133 1 23.0234 -9.5353 -0.3282
530 133 1 23.6384 -9.8868 -1.1097
531 133 1 -17.2152 -0.9579 -3.7508
532 133 1 -16.9598 -0.2216 -3.2521
533 134 1 -16.2224 -1.6255 -3.7816
534 134 1 -15.4123 -2.2907 -3.0453
535 134 1 -13.9615 -0.7625 -4.514
536 134 1 -13.3721 -1.4805 -4.3244
537 135 1 -13.8434 -0.0439 -4.8608
538 135 1 -13.4209 -0.6063 -4.2066
539 135 1 -4.6639 -0.0036 -2.3403
540 135 1 -5.372 -0.5433 -1.4892
541 136 1 -0.13 -5.4688 -1.8418
542 136 1 0.1999 -5.8391 -2.319
543 136 1 -3.5669 -0.4647 -4.4378
544 136 1 -3.7936 -0.6416 -4.6824
545 137 1 -4.2351 -0.409 -4.9106
546 137 1 -4.4005 0.417 -3.9972
547 137 1 0.5048 -4.6053 -2.163
548 137 1 0.4652 -3.9551 -2.8286
549 138 1 1.9061 -3.3212 -5.8074
550 138 1 1.3954 -3.355 -5.0288
551 138 1 -13.3451 0.2106 -3.1807
552 138 1 -12.7979 0.9971 -3.5103
553 139 1 -13.6441 0.2517 -2.7932
554 139 1 -12.7888 -0.6175 -2.6401
555 139 1 -6.0806 4.6135 -4.8892
556 139 1 -5.8834 5.329 -4.0074
557 140 1 -3.896 0.3408 -2.7976
558 140 1 -3.6383 0.5142 -2.4993
559 140 1 -5.642 5.5125 -5.4553
560 140 1 -6.319 5.0769 -6.2058
561 141 1 0.8479 3.8356 -1.4425
562 141 1 1.3987 4.4634 -1.1526
563 141 1 1.4768 4.2685 -1.0162
564 141 1 1.69 3.781 -1.1134
565 142 1 4.5015 3.4792 -2.0321
566 142 1 3.9567 3.221 -1.2125
567 142 1 4.2479 3.811 -2.4852
568 142 1 3.4648 4.0607 -2.3446
569 143 1 22.0296 4.1031 -4.2741
570 143 1 21.2549 3.1915 -5.0156
571 143 1 21.3194 3.7298 -5.2355
572 143 1 22.1636 2.9818 -5.6768
573 144 1 21.8849 1.707 -2.8564
574 144 1 20.9835 0.8993 -2.0605
575 144 1 21.5126 1.037 -3.8161
576 144 1 21.5728 0.4551 -3.2567
577 145 1 -16.347 8.0082 -5.3766
578 145 1 -15.9639 8.6986 -5.4872
579 145 1 -17.2354 8.6175 -5.8654
580 145 1 -16.7126 8.2202 -5.9528
581 146 1 -0.404 8.078 -4.5482
582 146 1 -0.252 7.1089 -5.4733
583 146 1 -0.0634 7.3262 -5.0728
584 146 1 0.1678 7.8337 -5.7331
585 147 1 -9.8556 14.0616 -1.8126
586 147 1 -9.2967 14.5349 -1.6157
587 147 1 -9.4199 13.7682 -2.5193
588 147 1 -8.8616 14.3464 -3.3868
589 148 1 -6.3509 13.4316 -1.2221
590 148 1 -7.2456 12.6613 -0.324
591 148 1 -5.6815 14.4078 -1.5993
592 148 1 -5.4913 13.9233 -1.443
593 149 1 -4.4464 16.4348 -0.3224
594 149 1 -3.8338 17.4322 0.6389
595 149 1 -4.5398 16.8161 -0.1397
596 149 1 -4.4602 16.0129 -0.7438
597 150 1 5.7457 12.5706 -2.2038
598 150 1 5.0589 12.6257 -2.6949
599 150 1 5.4247 11.7452 -2.111
600 150 1 5.251 11.2543 -1.7528
601 151 1 10.1548 12.4689 -3.3808
602 151 1 10.455 11.5123 -2.5871
603 151 1 10.4691 13.1438 -3.8385
604 151 1 10.2521 12.453 -2.8455
605 152 1 -19.5136 17.7716 -3.1192
606 152 1 -20.0237 18.0135 -2.5132
607 152 1 -19.4361 18.0585 -2.5627
608 152 1 -18.7754 18.525 -2.1681
609 153 1 -7.7405 23.1846 -1.6168
610 153 1 -6.8086 23.6454 -0.8285
611 153 1 16.6432 18.4169 -3.9405
612 153 1 15.7232 18.6299 -3.0206
613 154 1 17.3603 19.1296 -4.671
614 154 1 16.9667 19.125 -4.4198
615 154 1 -22.603 -18.5057 2.8441
616 154 1 -21.6362 -17.8486 2.7437
617 155 1 -22.7056 -17.6852 3.6065
618 155 1 -23.3148 -17.9584 3.855
619 155 1 -14.6622 -20.4578 5.3491
620 155 1 -14.4033 -19.5312 4.9629
621 156 1 6.7239 -21.2474 3.8396
622 156 1 5.7801 -21.9275 3.4215
623 156 1 7.1729 -21.1342 3.8905
624 156 1 7.2361 -21.6807 3.2853
625 157 1 13.4808 -23.4573 0.4036
626 157 1 13.8488 -24.0233 -0.1818
627 157 1 12.904 -22.5227 0.4525
628 157 1 12.9381 -23.2025 0.0243
629 158 1 -15.2674 -17.1384 0.6617
630 158 1 -15.2564 -17.8356 1.2019
631 158 1 3.2401 -13.6885 1.4638
632 158 1 4.0646 -13.3977 0.6952
633 159 1 3.2946 -14.5091 2.067
634 159 1 2.6483 -14.4006 2.2015
635 159 1 0.6184 -16.5463 1.0841
636 159 1 0.3305 -15.9813 1.4768
637 160 1 1.2908 -16.6444 0.34
638 160 1 0.3922 -15.85 0.4579
639 160 1 5.466 -16.2319 0.7651
640 160 1 6.2641 -16.5877 0.5098
641 161 1 7.5226 -13.0659 0.1089
642 161 1 8.3888 -13.047 -0.459
643 161 1 7.4986 -13.633 0.6637
644 161 1 8.431 -12.959 1.6301
645 162 1 9.3266 -12.884 2.2677
646 162 1 8.8445 -12.3058 2.7512
647 162 1 8.5972 -12.9792 1.3763
648 162 1 9.0603 -12.0389 1.4383
649 163 1 -19.2216 -7.6491 5.8539
650 163 1 -19.7639 -8.0792 6.4163
651 163 1 -17.1855 -5.9619 0.7396
652 163 1 -16.3792 -4.9655 0.1746
653 164 1 -8.4456 -11.4296 0.0397
654 164 1 -8.3559 -11.667 -0.3437
655 164 1 -5.9389 -9.8953 0.0571
656 164 1 -6.3511 -10.6699 0.3948
657 165 1 -4.4061 -7.9257 4.2232
658 165 1 -4.5562 -7.0482 4.6804
659 165 1 -4.3843 -8.4694 4.192
660 165 1 -3.9545 -7.7313 4.3571
661 166 1 23.2685 -10.1688 0.528
662 166 1 23.6797 -10.6177 0.8927
663 166 1 -19.4988 -0.7167 5.8141
664 166 1 -19.705 -1.268 6.6686
665 167 1 -17.5658 -5.5534 1.2891
666 167 1 -17.6559 -6.4349 2.0785
667 167 1 -10.2075 -5.5779 5.764
668 167 1 -9.5769 -6.2332 6.5683
669 168 1 3.4257 -0.8759 5.5516
670 168 1 4.383 -1.6047 6.5372
671 168 1 1.0846 -3.1457 3.4408
672 168 1 1.6951 -3.0092 3.3265
673 169 1 1.186 -2.6212 4.0918
674 169 1 2.1788 -3.0238 3.4701
675 169 1 9.4018 -2.6097 3.6644
676 169 1 9.4577 -2.5925 4.2466
677 170 1 9.504 -2.7287 3.9059
678 170 1 9.3843 -3.6259 4.3622
679 170 1 14.3004 -0.2564 1.2464
680 170 1 14.5878 0.159 2.2398
681 171 1 18.3083 -3.5088 1.4522
682 171 1 19.1744 -4.2292 0.5747
683 171 1 18.8766 -4.1655 1.3918
684 171 1 19.8292 -4.1316 1.2467
685 172 1 -19.4576 0.9859 5.2219
686 172 1 -19.2988 -0.0044 5.1182
687 172 1 -22.768 3.5147 1.1085
688 172 1 -22.1975 3.1602 1.8197
689 173 1 2.8216 4.5085 3.0869
690 173 1 2.9424 5.1157 2.9495
691 173 1 2.2527 5.3427 2.6991
692 173 1 2.9901 5.7057 1.7472
693 174 1 16.5428 3.1184 0.354
694 174 1 16.6886 3.8775 -0.3994
695 174 1 16.5318 4.0419 0.8374
696 174 1 17.2187 4.6902 1.4584
697 175 1 14.4918 0.0169 1.9926
698 175 1 14.8403 -0.983 2.1261
699 175 1 23.3784 4.2226 1.0478
700 175 1 24.1526 4.4107 1.9349
701 176 1 -18.9443 9.4587 4.8684
702 176 1 -18.4427 9.508 4.7382
703 176 1 -18.8531 9.333 4.6854
704 176 1 -19.2025 8.8355 4.5479
705 177 1 -7.9136 6.7288 1.9529
706 177 1 -6.936 6.027 1.6797
707 177 1 -7.3447 6.7828 2.4422
708 177 1 -7.0404 7.4693 2.3133
709 178 1 -11.2197 11.4969 1.235
710 178 1 -12.1493 11.5655 2.0731
711 178 1 -10.7008 10.5522 0.8649
712 178 1 -10.6386 10.5805 0.9544
713 179 1 -11.1435 10.5562 0.5128
714 179 1 -11.4935 9.9692 0.5035
715 179 1 2.2259 7.9519 2.5551
716 179 1 1.5973 8.7431 1.6686
717 180 1 2.9381 8.3726 1.5968
718 180 1 3.0076 8.0364 1.2049
719 180 1 6.0545 6.9914 1.5727
720 180 1 5.1713 7.3068 2.4599
721 181 1 6.8019 7.4773 2.1557
722 181 1 7.3233 6.7009 1.426
723 181 1 18.3584 11.7089 2.5066
724 181 1 17.3968 11.0586 2.9096
725 182 1 -11.7943 11.9558 0.4903
726 182 1 -11.2875 11.0981 0.052
727 182 1 -7.7569 11.821 2.434
728 182 1 -7.2417 12.6461 2.1358
729 183 1 -8.1759 12.6318 1.4456
730 183 1 -7.6122 13.3471 0.8566
731 183 1 -7.6505 16.8278 4.1117
732 183 1 -6.8388 16.4453 4.3386
733 184 1 -7.7349 17.0126 5.0362
734 184 1 -8.4129 16.5071 4.9598
735 184 1 16.9525 14.2322 3.6864
736 184 1 16.2217 14.6302 3.6498
737 185 1 16.8948 14.1313 4.0794
738 185 1 16.3189 14.8509 3.2533
739 185 1 18.423 12.638 2.9638
740 185 1 18.1263 13.2304 3.7578
741 186 1 19.0647 14.1343 4.1751
742 186 1 18.4415 14.3283 5.0956
743 186 1 18.4779 13.3036 5.0316
744 186 1 17.9353 14.1907 4.3673
745 187 1 18.7236 14.3688 4.9312
746 187 1 19.1397 14.1471 5.8653
747 187 1 19.6203 15.3326 4.2935
748 187 1 20.0842 15.8179 3.4323
749 188 1 -14.5302 21.7056 5.3863
750 188 1 -15.3394 21.8097 4.7074
751 188 1 -13.7636 20.8738 4.6012
752 188 1 -13.5093 21.1238 3.6151
753 189 1 -17.0797 21.0999 2.6131
754 189 1 -16.5772 21.1923 3.5805
755 189 1 -17.4967 20.9475 2.6419
756 189 1 -16.9448 21.7344 3.2887
757 190 1 -3.8269 19.3083 1.7814
758 190 1 -3.8514 18.5013 1.0082
759 190 1 -3.2119 20.1025 2.7751
760 190 1 -3.796 20.8879 3.1179
761 191 1 -13.9956 -20.3888 6.2124
762 191 1 -13.4792 -19.9864 5.7459
763 191 1 -4.298 -18.6879 9.2952
764 191 1 -5.1542 -19.5284 9.6993
765 192 1 -5.1941 -19.3742 9.1624
766 192 1 -4.4055 -20.111 9.0369
767 192 1 -1.8903 -21.7886 9.5358
768 192 1 -1.6361 -21.5082 8.7967
769 193 1 -1.3667 -20.9759 10.277
770 193 1 -0.7259 -21.9417 10.6063
771 193 1 -4.1753 -19.8161 11.5759
772 193 1 -3.3226 -20.5042 11.2475
773 194 1 -3.3524 -19.8026 11.2016
774 194 1 -4.1123 -19.4072 11.2975
775 194 1 9.1438 -23.382 11.1997
776 194 1 9.6955 -22.5931 11.3469
777 195 1 -12.655 -16.9786 10.3387
778 195 1 -13.2296 -16.3317 10.811
779 195 1 -11.8906 -17.0091 10.2142
780 195 1 -11.8577 -17.0713 10.2985
781 196 1 -14.8253 -11.9532 8.6112
782 196 1 -15.6496 -12.4288 9.3223
783 196 1 -9.5041 -15.867 11.2149
784 196 1 -8.9834 -15.171 10.7739
785 197 1 -9.516 -16.0538 10.7131
786 197 1 -9.7021 -15.7308 9.8741
787 197 1 -6.9531 -12.9523 7.7109
788 197 1 -7.7423 -12.4392 7.1677
789 198 1 -7.7022 -13.3446 8.5555
790 198 1 -8.1862 -12.5891 8.3497
791 198 1 7.434 -15.5269 8.084
792 198 1 7.8692 -15.261 7.699
793 199 1 8.0179 -14.7009 7.1774
794 199 1 8.0423 -14.0633 6.3494
795 199 1 13.7366 -15.8803 7.7379
796 199 1 14.6675 -16.0996 7.6013
797 200 1 12.7512 -16.6526 6.8926
798 200 1 13.286 -16.9517 7.1807
799 200 1 12.5931 -17.3274 7.4077
800 200 1 12.7989 -18.0979 7.8241
801 201 1 13.4703 -17.5117 7.5709
802 201 1 13.0365 -18.5032 8.5558
803 201 1 -19.7331 -6.5693 6.9448
804 201 1 -19.0634 -6.3882 5.9608
805 202 1 -19.767 -8.644 5.9372
806 202 1 -19.8896 -7.7208 5.2188
807 202 1 -13.9634 -11.131 8.7417
808 202 1 -13.7404 -11.5509 9.4517
809 203 1 -9.1391 -9.8648 9.2864
810 203 1 -9.6373 -9.2208 8.6478
811 203 1 -9.7745 -9.8409 9.5795
812 203 1 -9.1819 -10.3607 9.6677
813 204 1 9.899 -11.5487 6.5278
814 204 1 9.0844 -10.7465 5.8667
815 204 1 9.4615 -10.8115 7.2819
816 204 1 9.7859 -11.5287 6.3087
817 205 1 8.447 -5.877 9.6983
818 205 1 8.9686 -6.5231 9.2016
819 205 1 9.5914 -9.9367 11.7315
820 205 1 10.4506 -10.9042 11.7749
821 206 1 -20.0458 -5.6288 6.2268
822 206 1 -19.945 -4.8352 6.362
823 206 1 -19.1735 -0.8509 6.2125
824 206 1 -18.4793 -1.153 6.4883
825 207 1 -22.043 -3.197 7.5462
826 207 1 -22.8969 -3.3367 8.3398
827 207 1 -22.1436 -3.1698 7.7307
828 207 1 -22.4725 -3.7397 7.7981
829 208 1 -9.8995 -4.6862 6.7514
830 208 1 -10.3399 -3.8897 6.7379
831 208 1 5.0523 -2.0222 7.9836
832 208 1 5.786 -1.0238 8.3583
833 209 1 5.174 -2.7779 7.2168
834 209 1 5.4109 -3.5802 7.4445
835 209 1 8.6916 -5.0106 9.0293
836 209 1 9.6456 -4.4198 8.4506
837 210 1 12.5853 -1.2437 11.1523
838 210 1 12.2466 -1.0383 11.3113
839 210 1 18.2461 -1.7831 11.373
840 210 1 18.6324 -2.102 12.0537
841 211 1 -21.4938 0.8593 6.4133
842 211 1 -22.372 1.1085 5.5475
843 211 1 -20.5351 0.3823 6.1379
844 211 1 -20.7513 0.8688 6.4034
845 212 1 -20.3446 0.7397 6.1566
846 212 1 -20.5625 0.0601 6.9535
847 212 1 -6.1647 5.5217 9.0287
848 212 1 -5.5207 5.5089 8.3723
849 213 1 4.3443 0.1005 5.971
850 213 1 3.9251 -0.2611 5.0948
851 213 1 17.1206 4.9384 8.2763
852 213 1 17.0961 5.0696 8.9935
853 214 1 16.5843 4.4862 7.853
854 214 1 16.7022 3.8107 7.2989
855 214 1 12.7672 1.3301 8.2827
856 214 1 13.3632 1.5123 8.8767
857 215 1 12.2885 1.5648 8.7289
858 215 1 13.1427 1.6362 9.1037
859 215 1 -14.4801 11.0818 8.7665
860 215 1 -14.9937 10.2915 9.473
861 216 1 -13.8185 10.918 9.4321
862 216 1 -13.1994 11.624 10.2009
863 216 1 -11.7571 8.9754 7.7091
864 216 1 -11.6856 8.735 7.3506
865 217 1 -11.9182 8.3074 7.3239
866 217 1 -12.7823 8.278 7.3501
867 217 1 -7.1193 6.1254 9.6125
868 217 1 -6.9894 5.2944 9.9456
869 218 1 -7.6484 10.4894 8.0232
870 218 1 -8.5839 10.1976 8.9744
871 218 1 -7.3072 10.1593 7.0514
872 218 1 -7.4738 10.7125 7.8533
873 219 1 -7.2193 11.4221 11.6724
874 219 1 -7.7118 11.2044 11.7505
875 219 1 -6.3933 11.2055 10.8668
876 219 1 -5.9445 11.576 11.0892
877 220 1 10.3909 7.7123 7.4867
878 220 1 10.2757 7.0867 7.0525
879 220 1 10.6125 8.0235 7.9762
880 220 1 10.4141 7.3094 7.2242
881 221 1 15.461 10.381 9.0465
882 221 1 16.346 10.426 8.8546
883 221 1 14.6419 10.9804 9.9756
884 221 1 15.4179 10.598 10.1264
885 222 1 19.9405 17.0627 6.7136
886 222 1 20.7699 16.3875 6.0609
887 222 1 20.7694 17.1167 6.9973
888 222 1 21.4562 17.9463 7.9002
889 223 1 23.3191 17.48 6.4272
890 223 1 24.1169 17.4785 6.2856
891 223 1 -3.6213 19.0543 10.6327
892 223 1 -3.0068 19.4107 10.4587
893 224 1 -4.3231 19.9777 10.9633