LAMMPS UA chain data file

600 atoms
300 bonds

1 atom types
1 bond types

-23.471697 23.471697 xlo xhi
-23.471697 23.471697 ylo yhi
-23.471697 23.471697 zlo zhi

Masses

1 17.0

Atoms

1 1 1 -1.6574 -23.0254 -15.5599
2 1 1 -1.831 -23.1074 -16.1852
3 2 1 -3.896 0.3408 -2.7976
4 2 1 -4.6639 -0.0036 -2.3403
5 3 1 18.6268 -8.1299 17.5766
6 3 1 17.6645 -8.5595 17.472
7 4 1 8.7245 2.6106 -9.6979
8 4 1 9.3139 2.2992 -10.3516
9 5 1 12.0338 -3.3821 -9.1685
10 5 1 12.0833 -4.3777 -8.8094
11 6 1 14.5899 15.0862 22.1262
12 6 1 14.3746 16.0335 21.1436
13 7 1 15.461 10.381 9.0465
14 7 1 14.6419 10.9804 9.9756
15 8 1 -4.9986 -3.4329 -12.9264
16 8 1 -5.8399 -3.9212 -13.7559
17 9 1 -7.7569 11.821 2.434
18 9 1 -8.1759 12.6318 1.4456
19 10 1 3.5487 22.6037 17.2099
20 10 1 3.4801 22.8872 16.3537
21 11 1 -4.5957 17.7492 -12.0194
22 11 1 -4.7279 17.3306 -11.0768
23 12 1 1.8943 -18.984 -20.8753
24 12 1 2.4729 -19.8586 -20.2921
25 13 1 -17.3011 16.1772 17.2912
26 13 1 -17.6919 16.5862 17.5271
27 14 1 -19.5136 17.7716 -3.1192
28 14 1 -19.4361 18.0585 -2.5627
29 15 1 -6.3835 -2.6143 17.0999
30 15 1 -6.621 -2.0164 16.9372
31 16 1 -21.8091 -13.7474 -17.9957
32 16 1 -21.4207 -12.8454 -17.6306
33 17 1 3.4257 -0.8759 5.5516
34 17 1 4.3443 0.1005 5.971
35 18 1 -12.655 -16.9786 10.3387
36 18 1 -11.8906 -17.0091 10.2142
37 19 1 21.3557 -17.8549 -21.215
38 19 1 20.9656 -17.4105 -20.3209
39 20 1 -19.7868 -8.3444 21.8323
40 20 1 -19.3253 -7.5193 21.2068
41 21 1 -11.2024 14.7025 -22.1375
42 21 1 -10.9384 15.3044 -21.2051
43 22 1 -6.7496 3.6997 -20.8651
44 22 1 -7.2747 3.2875 -20.2864
45 23 1 -9.8995 -4.6862 6.7514
46 23 1 -10.2075 -5.5779 5.764
47 24 1 7.5226 -13.0659 0.1089
48 24 1 7.4986 -13.633 0.6637
49 25 1 -9.516 7.1246 -21.4291
50 25 1 -9.8919 7.7242 -21.9648
51 26 1 13.8279 -0.8886 -10.7663
52 26 1 14.7402 -1.1489 -10.2897
53 27 1 11.1061 15.9328 -11.7835
54 27 1 12.0026 16.5791 -12.2726
55 28 1 12.4249 7.8918 15.2478
56 28 1 13.0051 8.3429 15.5962
57 29 1 19.5447 -3.1728 -16.6504
58 29 1 18.8376 -3.7796 -16.9823
59 30 1 -17.9653 4.9393 -13.3866
60 30 1 -17.7675 5.5881 -12.4015
61 31 1 9.899 -11.5487 6.5278
62 31 1 9.4615 -10.8115 7.2819
63 32 1 3.2401 -13.6885 1.4638
64 32 1 3.2946 -14.5091 2.067
65 33 1 -8.4464 -12.4022 -5.4491
66 33 1 -7.6825 -13.1962 -4.5899
67 34 1 -14.6622 -20.4578 5.3491
68 34 1 -13.9956 -20.3888 6.2124
69 35 1 13.3862 -23.411 13.8841
70 35 1 13.8635 -23.3563 13.5473
71 36 1 -14.3354 23.069 -15.2904
72 36 1 -13.6021 23.0343 -15.4408
73 37 1 3.3411 12.2108 -13.8519
74 37 1 3.608 11.9197 -13.4466
75 38 1 -7.9136 6.7288 1.9529
76 38 1 -7.3447 6.7828 2.4422
77 39 1 0.4028 16.6413 -23.0278
78 39 1 -0.0163 17.0259 -23.2236
79 40 1 -22.603 -18.5057 2.8441
80 40 1 -22.7056 -17.6852 3.6065
81 41 1 18.3584 11.7089 2.5066
82 41 1 18.423 12.638 2.9638
83 42 1 0.6184 -16.5463 1.0841
84 42 1 1.2908 -16.6444 0.34
85 43 1 -23.2816 3.8949 -20.5804
86 43 1 -23.0741 3.8544 -21.157
87 44 1 18.5407 18.9913 -17.3765
88 44 1 17.8366 18.1715 -18.3301
89 45 1 1.2398 -19.2693 -16.9446
90 45 1 0.2672 -19.4486 -17.3942
91 46 1 14.6586 22.6298 15.3772
92 46 1 13.8154 21.9365 15.3547
93 47 1 19.468 -21.593 -5.9036
94 47 1 19.9893 -21.8822 -5.5787
95 48 1 0.0073 3.2693 22.3068
96 48 1 -0.5954 3.7252 22.4247
97 49 1 12.9933 -13.2003 -19.7747
98 49 1 12.0183 -13.6142 -20.5761
99 50 1 -14.5302 21.7056 5.3863
100 50 1 -13.7636 20.8738 4.6012
101 51 1 -7.4 -18.4783 -16.4645
102 51 1 -6.4019 -18.6556 -16.2921
103 52 1 -20.0458 -5.6288 6.2268
104 52 1 -19.7331 -6.5693 6.9448
105 53 1 18.6267 16.072 -13.5501
106 53 1 18.511 15.5891 -14.3493
107 54 1 -8.1376 22.4134 -11.9409
108 54 1 -7.869 21.8596 -12.176
109 55 1 -5.8308 -5.4138 -15.2619
110 55 1 -4.8504 -4.8988 -14.288
111 56 1 22.8475 4.0309 21.5792
112 56 1 22.1651 4.525 21.9228
113 57 1 16.5333 -20.9958 -4.4622
114 57 1 16.0793 -21.2237 -5.0642
115 58 1 9.0345 -6.0397 -13.7571
116 58 1 9.8097 -5.8499 -12.8843
117 59 1 -1.7534 21.8877 -15.3814
118 59 1 -2.0529 20.9294 -15.7039
119 60 1 -22.5771 -4.3546 14.3331
120 60 1 -22.4422 -3.7353 13.4147
121 61 1 -18.8824 -6.976 -16.968
122 61 1 -18.4191 -6.7244 -16.6928
123 62 1 18.5202 -15.8664 15.2847
124 62 1 17.5884 -15.8679 16.0698
125 63 1 -1.635 14.6789 13.9441
126 63 1 -1.4531 13.753 13.1405
127 64 1 21.2964 -5.5434 -19.6849
128 64 1 21.3874 -6.5055 -20.44
129 65 1 -11.2197 11.4969 1.235
130 65 1 -11.7943 11.9558 0.4903
131 66 1 0.8479 3.8356 -1.4425
132 66 1 1.4768 4.2685 -1.0162
133 67 1 23.4057 -23.1678 -0.1979
134 67 1 23.6893 -23.2909 -0.6525
135 68 1 5.4816 -13.9076 15.0234
136 68 1 5.0759 -13.7297 15.1575
137 69 1 6.0545 6.9914 1.5727
138 69 1 6.8019 7.4773 2.1557
139 70 1 19.9405 17.0627 6.7136
140 70 1 20.7694 17.1167 6.9973
141 71 1 -6.0806 4.6135 -4.8892
142 71 1 -5.642 5.5125 -5.4553
143 72 1 -13.1143 -12.7628 -17.6757
144 72 1 -12.7563 -13.6086 -17.0203
145 73 1 2.8216 4.5085 3.0869
146 73 1 2.2527 5.3427 2.6991
147 74 1 -6.1647 5.5217 9.0287
148 74 1 -7.1193 6.1254 9.6125
149 75 1 13.0502 15.4008 -9.1579
150 75 1 13.5696 14.8398 -9.4316
151 76 1 6.2961 -23.1847 -0.9794
152 76 1 6.0268 -23.2218 -0.8927
153 77 1 10.6166 -23.2815 16.903
154 77 1 10.3438 -22.3105 16.6248
155 78 1 1.9798 -11.7776 -13.2684
156 78 1 1.001 -12.1667 -12.8092
157 79 1 -2.6894 -11.0759 16.5084
158 79 1 -1.8774 -10.6932 16.7602
159 80 1 9.3266 -12.884 2.2677
160 80 1 8.5972 -12.9792 1.3763
161 81 1 -21.9491 -11.3408 -3.5173
162 81 1 -22.8715 -10.4515 -3.1919
163 82 1 17.2977 10.5725 20.0703
164 82 1 17.1986 10.4791 20.8952
165 83 1 -16.2017 -12.2617 19.5848
166 83 1 -15.9392 -12.4147 20.1316
167 84 1 -18.6364 -18.5163 -9.001
168 84 1 -19.3087 -17.7869 -8.2661
169 85 1 -10.0749 -13.9432 -8.0254
170 85 1 -10.0943 -14.1483 -8.9691
171 86 1 -7.6484 10.4894 8.0232
172 86 1 -7.3072 10.1593 7.0514
173 87 1 -7.9971 -11.1855 -0.6964
174 87 1 -8.4456 -11.4296 0.0397
175 88 1 22.0296 4.1031 -4.2741
176 88 1 21.3194 3.7298 -5.2355
177 89 1 4.5152 -16.4557 -0.1492
178 89 1 5.466 -16.2319 0.7651
179 90 1 -2.9004 15.2769 -16.5827
180 90 1 -3.332 16.1216 -16.8878
181 91 1 -18.7561 -17.0866 -18.7408
182 91 1 -18.0909 -16.3519 -18.0214
183 92 1 17.1206 4.9384 8.2763
184 92 1 16.5843 4.4862 7.853
185 93 1 15.0827 10.0115 12.0464
186 93 1 14.4533 9.3101 12.8975
187 94 1 0.5048 -4.6053 -2.163
188 94 1 -0.13 -5.4688 -1.8418
189 95 1 23.2685 -10.1688 0.528
190 95 1 23.0234 -9.5353 -0.3282
191 96 1 -0.8632 -7.4049 -23.2917
192 96 1 -0.2346 -7.3505 -23.5585
193 97 1 10.7207 -20.0105 -6.0423
194 97 1 9.8201 -19.9852 -6.9824
195 98 1 -0.0375 7.3013 -8.5434
196 98 1 -0.3211 6.8256 -9.4202
197 99 1 5.0127 -8.1574 -11.689
198 99 1 5.0172 -8.9972 -11.6553
199 100 1 16.6432 18.4169 -3.9405
200 100 1 17.3603 19.1296 -4.671
201 101 1 19.9282 -21.7205 -0.4845
202 101 1 19.0566 -21.9064 -0.3499
203 102 1 20.589 -17.2418 -1.8354
204 102 1 20.151 -18.096 -1.3765
205 103 1 1.0846 -3.1457 3.4408
206 103 1 1.186 -2.6212 4.0918
207 104 1 18.3216 2.0052 -21.797
208 104 1 17.9745 1.9131 -21.2056
209 105 1 14.6511 -0.2487 -12.5758
210 105 1 15.6249 -0.7336 -12.4909
211 106 1 -11.0936 -2.212 -8.5389
212 106 1 -11.5913 -2.9118 -7.9404
213 107 1 8.9464 -10.3708 19.3742
214 107 1 8.6201 -9.8531 19.2538
215 108 1 1.1353 -17.528 -1.11
216 108 1 2.0768 -16.7666 -1.5559
217 109 1 -21.6995 2.0141 21.2225
218 109 1 -20.7276 1.6415 21.5821
219 110 1 16.5428 3.1184 0.354
220 110 1 16.5318 4.0419 0.8374
221 111 1 -13.0723 -19.1331 13.9706
222 111 1 -12.8469 -19.07 13.2402
223 112 1 -17.2152 -0.9579 -3.7508
224 112 1 -16.2224 -1.6255 -3.7816
225 113 1 -21.0786 -12.1711 14.0416
226 113 1 -20.3806 -11.7978 13.2863
227 114 1 -9.8556 14.0616 -1.8126
228 114 1 -9.4199 13.7682 -2.5193
229 115 1 -19.4988 -0.7167 5.8141
230 115 1 -19.1735 -0.8509 6.2125
231 116 1 8.447 -5.877 9.6983
232 116 1 8.6916 -5.0106 9.0293
233 117 1 -5.6815 14.4078 -1.5993
234 117 1 -6.3509 13.4316 -1.2221
235 118 1 19.0647 14.1343 4.1751
236 118 1 18.4779 13.3036 5.0316
237 119 1 11.1756 0.3619 21.2345
238 119 1 10.2013 0.8734 20.5346
239 120 1 -18.1491 21.4896 20.1806
240 120 1 -18.1849 21.8067 19.7638
241 121 1 6.5916 -19.5301 -11.4919
242 121 1 7.2566 -18.9627 -10.8656
243 122 1 -9.2035 13.7562 -8.9503
244 122 1 -8.8729 14.2786 -8.2363
245 123 1 -0.3604 10.4393 -19.5882
246 123 1 0.4799 9.8812 -20.5126
247 124 1 7.434 -15.5269 8.084
248 124 1 8.0179 -14.7009 7.1774
249 125 1 -11.5799 1.4793 19.8039
250 125 1 -11.8227 0.5604 20.1535
251 126 1 -6.0956 11.4832 13.0098
252 126 1 -6.7177 12.4552 13.6096
253 127 1 -22.043 -3.197 7.5462
254 127 1 -22.1436 -3.1698 7.7307
255 128 1 20.0681 16.6553 20.7821
256 128 1 20.1902 17.0979 19.8578
257 129 1 2.092 9.4347 13.2519
258 129 1 1.5449 8.6983 12.7999
259 130 1 -19.7285 -22.9133 18.5207
260 130 1 -18.8993 -22.8921 19.3538
261 131 1 -17.2579 -6.5353 13.0387
262 131 1 -18.1114 -5.9663 13.5216
263 132 1 -5.8399 -18.9316 -17.303
264 132 1 -6.5457 -18.4856 -17.7715
265 133 1 22.8456 -9.9874 -16.9091
266 133 1 22.4221 -10.5447 -17.696
267 134 1 -9.5041 -15.867 11.2149
268 134 1 -9.516 -16.0538 10.7131
269 135 1 -4.298 -18.6879 9.2952
270 135 1 -5.1941 -19.3742 9.1624
271 136 1 -13.3451 0.2106 -3.1807
272 136 1 -13.6441 0.2517 -2.7932
273 137 1 18.3083 -3.5088 1.4522
274 137 1 18.8766 -4.1655 1.3918
275 138 1 12.3487 16.9536 18.9498
276 138 1 12.5666 17.9213 18.0332
277 139 1 5.104 -19.895 15.3542
278 139 1 5.4965 -20.598 14.8978
279 140 1 -7.2193 11.4221 11.6724
280 140 1 -6.3933 11.2055 10.8668
281 141 1 -14.4801 11.0818 8.7665
282 141 1 -13.8185 10.918 9.4321
283 142 1 -11.2373 -7.5932 -20.712
284 142 1 -11.7333 -7.7193 -21.5093
285 143 1 -12.8825 -20.9728 -20.6821
286 143 1 -12.4412 -21.4583 -21.0847
287 144 1 7.0384 -15.2521 -6.546
288 144 1 7.4238 -15.6962 -7.4843
289 145 1 -19.0351 -14.5883 -12.1179
290 145 1 -18.5177 -14.7668 -11.8198
291 146 1 6.6301 2.1342 16.7892
292 146 1 7.3743 2.0784 17.4916
293 147 1 6.4811 22.1837 -7.2271
294 147 1 6.888 22.9357 -7.3383
295 148 1 13.5697 9.6251 -7.3882
296 148 1 13.2432 10.1192 -8.1235
297 149 1 -18.1549 -21.9573 -18.7089
298 149 1 -17.6333 -22.5591 -18.4435
299 150 1 -6.664 22.016 19.5897
300 150 1 -5.748 21.6194 19.3752
301 151 1 6.6028 -3.3529 23.1151
302 151 1 6.8311 -3.2382 22.6431
303 152 1 14.2876 -18.0191 -14.6014
304 152 1 14.8044 -17.3826 -14.48
305 153 1 -11.7571 8.9754 7.7091
306 153 1 -11.9182 8.3074 7.3239
307 154 1 16.1858 -16.9204 13.0577
308 154 1 16.9453 -17.4819 12.8804
309 155 1 -21.4938 0.8593 6.4133
310 155 1 -20.5351 0.3823 6.1379
311 156 1 -2.0874 -19.262 12.9056
312 156 1 -2.5395 -18.6299 12.0635
313 157 1 -19.9175 -5.1582 -22.6923
314 157 1 -19.5337 -4.352 -23.3965
315 158 1 -3.8269 19.3083 1.7814
316 158 1 -3.2119 20.1025 2.7751
317 159 1 -8.153 -15.4587 -4.1556
318 159 1 -8.4731 -16.4174 -3.6788
319 160 1 5.3691 -7.6788 -16.4005
320 160 1 6.056 -8.4963 -17.3475
321 161 1 -20.0207 0.2779 -19.6889
322 161 1 -19.8116 1.2233 -19.0638
323 162 1 13.5186 15.5053 -18.4892
324 162 1 13.2982 15.2692 -18.8849
325 163 1 4.3414 15.5954 13.181
326 163 1 3.6425 15.3174 13.0849
327 164 1 20.5276 -6.3302 -8.7504
328 164 1 20.6992 -7.1059 -9.73
329 165 1 -21.6948 1.1127 -17.948
330 165 1 -21.6527 0.1608 -17.8118
331 166 1 17.0036 -5.9143 17.5144
332 166 1 16.856 -6.5862 17.5648
333 167 1 -14.7401 -21.4226 -7.4937
334 167 1 -13.8131 -20.723 -8.2356
335 168 1 -2.8155 5.7148 -8.1321
336 168 1 -2.5695 4.9084 -7.7802
337 169 1 21.8849 1.707 -2.8564
338 169 1 21.5126 1.037 -3.8161
339 170 1 -5.1681 9.1919 -14.6031
340 170 1 -4.8956 8.8495 -14.052
341 171 1 2.2259 7.9519 2.5551
342 171 1 2.9381 8.3726 1.5968
343 172 1 21.2042 -4.5596 -12.9723
344 172 1 21.3737 -5.0345 -13.5968
345 173 1 5.7457 12.5706 -2.2038
346 173 1 5.4247 11.7452 -2.111
347 174 1 -1.8903 -21.7886 9.5358
348 174 1 -1.3667 -20.9759 10.277
349 175 1 1.9061 -3.3212 -5.8074
350 175 1 1.7379 -3.0724 -6.2678
351 176 1 4.3249 7.7706 -11.9879
352 176 1 4.596 6.8435 -12.0929
353 177 1 5.6239 -0.8394 -19.9601
354 177 1 5.9853 0.0861 -19.9084
355 178 1 4.1871 -1.7444 -6.4106
356 178 1 3.9817 -2.6892 -5.9714
357 179 1 20.3354 -19.924 -8.9712
358 179 1 21.1126 -19.8237 -9.6523
359 180 1 -18.8189 23.3652 -19.2185
360 180 1 -17.9808 23.3421 -20.0775
361 181 1 -10.1394 18.2359 19.7302
362 181 1 -9.6688 18.2782 20.0514
363 182 1 -4.4464 16.4348 -0.3224
364 182 1 -4.5398 16.8161 -0.1397
365 183 1 -0.4637 -1.9506 -23.0486
366 183 1 0.3807 -2.1385 -22.966
367 184 1 -15.4703 -17.506 -0.221
368 184 1 -15.2674 -17.1384 0.6617
369 185 1 23.3191 17.48 6.4272
370 185 1 22.3414 17.8049 6.5386
371 186 1 -3.2342 11.2605 -16.9899
372 186 1 -2.9952 11.436 -17.3095
373 187 1 15.636 21.8462 16.4867
374 187 1 16.1078 22.5769 16.2575
375 188 1 16.0231 -1.4919 -23.2373
376 188 1 16.4697 -0.5954 -23.1781
377 189 1 -8.6129 8.0419 -22.804
378 189 1 -9.0106 7.9804 -23.5283
379 190 1 10.1548 12.4689 -3.3808
380 190 1 10.4691 13.1438 -3.8385
381 191 1 -3.5669 -0.4647 -4.4378
382 191 1 -4.2351 -0.409 -4.9106
383 192 1 16.8611 -14.7581 -18.255
384 192 1 17.562 -15.0589 -18.7018
385 193 1 -15.3439 -19.7578 17.6123
386 193 1 -15.1732 -20.711 16.7717
387 194 1 -15.2946 -5.3086 -9.7769
388 194 1 -14.4724 -4.7971 -9.5229
389 195 1 -15.7987 -2.2223 14.9193
390 195 1 -15.8755 -1.7396 15.6159
391 196 1 13.7366 -15.8803 7.7379
392 196 1 12.7512 -16.6526 6.8926
393 197 1 -16.7339 14.9997 15.3805
394 197 1 -17.0734 14.352 15.6758
395 198 1 -16.3889 -19.9924 -9.1532
396 198 1 -16.9957 -20.4541 -8.5223
397 199 1 10.0746 18.5259 -9.0125
398 199 1 9.2358 18.6537 -9.3708
399 200 1 13.4857 14.4015 -13.0766
400 200 1 12.8046 13.5511 -12.852
401 201 1 13.5228 22.2228 -8.6009
402 201 1 12.6856 22.4503 -9.3003
403 202 1 -7.8078 5.7084 -18.058
404 202 1 -7.2786 4.735 -18.4985
405 203 1 -5.9389 -9.8953 0.0571
406 203 1 -4.9558 -10.4183 -0.1371
407 204 1 2.1163 22.2551 18.9584
408 204 1 1.1679 22.7675 18.2339
409 205 1 21.3712 16.6822 22.7976
410 205 1 21.1472 16.8061 23.1845
411 206 1 13.1714 -22.0991 -20.5176
412 206 1 13.4871 -21.9471 -20.8664
413 207 1 16.7935 -10.7818 16.8375
414 207 1 16.3691 -10.1395 15.9908
415 208 1 -6.3858 -11.692 -9.1367
416 208 1 -7.2601 -11.0078 -9.7804
417 209 1 20.1331 -4.0297 22.9874
418 209 1 20.0001 -5.0137 22.5354
419 210 1 16.9532 18.1126 14.3694
420 210 1 17.1678 17.7966 15.2029
421 211 1 14.8551 9.2264 -18.5962
422 211 1 14.2818 9.6105 -19.0353
423 212 1 -7.0233 -20.5517 -0.4725
424 212 1 -7.7022 -20.6216 -0.2708
425 213 1 18.7236 14.3688 4.9312
426 213 1 19.6203 15.3326 4.2935
427 214 1 8.9495 -18.9217 -14.0407
428 214 1 8.5929 -19.0041 -13.6212
429 215 1 12.5093 -0.7643 11.7883
430 215 1 12.5853 -1.2437 11.1523
431 216 1 -19.4576 0.9859 5.2219
432 216 1 -20.3446 0.7397 6.1566
433 217 1 -13.0581 8.5826 -22.7724
434 217 1 -13.5816 8.1155 -22.5059
435 218 1 11.2727 22.0073 11.8255
436 218 1 11.4559 22.4374 11.5378
437 219 1 5.4229 -1.2117 -19.501
438 219 1 4.6157 -1.8951 -19.8904
439 220 1 1.3176 13.1049 -10.6209
440 220 1 0.9354 13.4357 -10.2474
441 221 1 -19.767 -8.644 5.9372
442 221 1 -19.2216 -7.6491 5.8539
443 222 1 -6.9531 -12.9523 7.7109
444 222 1 -7.7022 -13.3446 8.5555
445 223 1 8.0737 4.6043 -14.0537
446 223 1 8.8122 4.2053 -13.9197
447 224 1 -7.6505 16.8278 4.1117
448 224 1 -7.7349 17.0126 5.0362
449 225 1 -8.3871 13.4258 14.7397
450 225 1 -7.3979 14.4012 14.0259
451 226 1 -18.9443 9.4587 4.8684
452 226 1 -18.8531 9.333 4.6854
453 227 1 17.4634 -20.7821 -21.91
454 227 1 17.0708 -20.5526 -22.9026
455 228 1 -4.9507 -14.636 -8.5831
456 228 1 -4.9426 -14.5318 -8.52
457 229 1 5.0523 -2.0222 7.9836
458 229 1 5.174 -2.7779 7.2168
459 230 1 -2.6214 3.4818 -14.9852
460 230 1 -3.2165 3.4244 -14.5472
461 231 1 -14.8253 -11.9532 8.6112
462 231 1 -13.9634 -11.131 8.7417
463 232 1 2.1449 -11.766 -9.3589
464 232 1 3.1111 -11.0284 -9.6342
465 233 1 13.812 -20.5841 21.6144
466 233 1 14.7162 -20.9278 21.8226
467 234 1 -4.1753 -19.8161 11.5759
468 234 1 -3.3524 -19.8026 11.2016
469 235 1 15.9569 -15.444 -1.9949
470 235 1 16.8565 -14.6051 -1.1506
471 236 1 -19.7342 6.6247 -23.2314
472 236 1 -19.882 7.5035 -22.7954
473 237 1 -5.7083 -5.5259 17.8428
474 237 1 -5.5179 -5.6018 18.1206
475 238 1 12.5931 -17.3274 7.4077
476 238 1 13.4703 -17.5117 7.5709
477 239 1 13.8338 -21.6808 22.5999
478 239 1 13.3997 -21.3392 21.7222
479 240 1 -7.5511 4.5114 -22.6671
480 240 1 -7.6902 5.4657 -22.6178
481 241 1 0.3912 -0.4509 -15.5393
482 241 1 1.2446 -0.1892 -15.8004
483 242 1 10.6107 -21.3608 -9.3529
484 242 1 10.7226 -21.8607 -10.0473
485 243 1 -12.5069 0.4379 18.3031
486 243 1 -13.0805 -0.3979 17.8358
487 244 1 4.5962 -11.3788 22.6072
488 244 1 4.2973 -11.1818 22.6434
489 245 1 8.4898 -19.8313 21.0132
490 245 1 9.0618 -20.4234 21.4449
491 246 1 -17.0797 21.0999 2.6131
492 246 1 -17.4967 20.9475 2.6419
493 247 1 -3.1204 8.4598 -14.7408
494 247 1 -2.2797 8.2669 -13.8556
495 248 1 2.4066 21.0139 6.1138
496 248 1 1.8655 21.8475 6.3857
497 249 1 2.1624 -6.25 12.3992
498 249 1 1.2087 -6.573 12.9948
499 250 1 16.9525 14.2322 3.6864
500 250 1 16.8948 14.1313 4.0794
501 251 1 -16.347 8.0082 -5.3766
502 251 1 -17.2354 8.6175 -5.8654
503 252 1 10.7889 3.9453 -16.7154
504 252 1 11.096 3.2513 -16.5556
505 253 1 10.1907 -10.241 12.2829
506 253 1 9.5914 -9.9367 11.7315
507 254 1 18.5774 -21.1513 -13.1599
508 254 1 18.7151 -21.2522 -13.1505
509 255 1 -3.6213 19.0543 10.6327
510 255 1 -4.3231 19.9777 10.9633
511 256 1 -22.768 3.5147 1.1085
512 256 1 -23.565 4.2226 1.0478
513 257 1 9.4018 -2.6097 3.6644
514 257 1 9.504 -2.7287 3.9059
515 258 1 -17.1855 -5.9619 0.7396
516 258 1 -17.5658 -5.5534 1.2891
517 259 1 5.9497 21.6134 -13.8704
518 259 1 5.9726 21.8635 -14.536
519 260 1 15.5782 -15.8161 22.1628
520 260 1 15.5484 -16.7968 21.7434
521 261 1 -3.0034 -6.0175 -5.92
522 261 1 -2.3696 -6.7422 -4.9606
523 262 1 19.1596 -3.1486 12.0516
524 262 1 18.9488 -2.6218 12.4029
525 263 1 12.7672 1.3301 8.2827
526 263 1 12.2885 1.5648 8.7289
527 264 1 4.5015 3.4792 -2.0321
528 264 1 4.2479 3.811 -2.4852
529 265 1 10.9222 23.4287 -14.7749
530 265 1 11.6435 23.0257 -15.5973
531 266 1 -14.1219 -13.1049 17.0762
532 266 1 -15.0778 -12.5264 17.4788
533 267 1 9.1438 -23.382 11.1997
534 267 1 8.9831 -23.6749 11.9026
535 268 1 5.7437 -16.3553 15.9086
536 268 1 5.8358 -16.3248 16.8812
537 269 1 1.2705 10.5224 12.1411
538 269 1 1.2626 11.0052 13.1194
539 270 1 -0.404 8.078 -4.5482
540 270 1 -0.0634 7.3262 -5.0728
541 271 1 -7.7405 23.1846 -1.6168
542 271 1 -7.9062 24.0443 -1.0801
543 272 1 7.0385 -22.2706 -1.0759
544 272 1 6.9379 -21.5598 -0.1457
545 273 1 -3.7314 -21.0038 17.5753
546 273 1 -3.9167 -20.3922 17.5869
547 274 1 14.4918 0.0169 1.9926
548 274 1 14.3004 -0.2564 1.2464
549 275 1 6.7239 -21.2474 3.8396
550 275 1 7.1729 -21.1342 3.8905
551 276 1 5.9623 11.0706 23.2974
552 276 1 6.3079 10.4966 22.6762
553 277 1 5.622 8.3953 -11.9804
554 277 1 6.4598 7.461 -11.2948
555 278 1 -13.9615 -0.7625 -4.514
556 278 1 -13.8434 -0.0439 -4.8608
557 279 1 -13.6492 20.688 -14.8142
558 279 1 -13.4762 20.7779 -14.7834
559 280 1 -9.1391 -9.8648 9.2864
560 280 1 -9.7745 -9.8409 9.5795
561 281 1 18.2461 -1.7831 11.373
562 281 1 17.747 -2.5703 11.9038
563 282 1 -10.0054 3.7237 -17.7044
564 282 1 -9.5294 2.8698 -16.7327
565 283 1 -4.4061 -7.9257 4.2232
566 283 1 -4.3843 -8.4694 4.192
567 284 1 -18.3564 6.5112 21.3185
568 284 1 -18.5404 5.9594 20.5843
569 285 1 20.7563 7.8972 21.53
570 285 1 20.0364 8.6125 21.9621
571 286 1 13.4808 -23.4573 0.4036
572 286 1 12.904 -22.5227 0.4525
573 287 1 3.4516 -0.942 -15.1013
574 287 1 2.9672 -1.1187 -14.1489
575 288 1 -10.7008 10.5522 0.8649
576 288 1 -11.1435 10.5562 0.5128
577 289 1 -15.2022 19.2757 -21.0928
578 289 1 -14.3475 20.1757 -20.6157
579 290 1 13.5941 -19.2573 -1.5082
580 290 1 13.2487 -18.4856 -0.8433
581 291 1 -1.8178 15.9669 -9.0847
582 291 1 -2.2769 16.5555 -9.1196
583 292 1 -21.438 -22.4073 -6.7068
584 292 1 -21.9818 -21.9095 -5.7258
585 293 1 5.8166 -11.2089 21.9667
586 293 1 6.2888 -11.8727 22.7163
587 294 1 -18.9901 -21.2514 19.6802
588 294 1 -19.5479 -20.6613 19.2431
589 295 1 19.9515 -14.1232 -18.2424
590 295 1 20.6257 -14.8205 -19.171
591 296 1 8.1206 -18.3179 -16.4823
592 296 1 7.9514 -17.8215 -15.5676
593 297 1 -10.9086 -20.9441 -10.0065
594 297 1 -10.9116 -21.3834 -9.9851
595 298 1 21.7364 -20.4195 13.2719
596 298 1 22.136 -21.2699 14.1838
597 299 1 7.7359 9.7766 -22.7335
598 299 1 8.0255 9.7786 -23.2728
599 300 1 10.3909 7.7123 7.4867
600 300 1 10.6125 8.0235 7.9762

Bonds

1 1 1 2
2 1 3 4
3 1 5 6
4 1 7 8
5 1 9 10
6 1 11 12
7 1 13 14
8 1 15 16
9 1 17 18
10 1 19 20
11 1 21 22
12 1 23 24
13 1 25 26
14 1 27 28
15 1 29 30
16 1 31 32
17 1 33 34
18 1 35 36
19 1 37 38
20 1 39 40
21 1 41 42
22 1 43 44
23 1 45 46
24 1 47 48
25 1 49 50
26 1 51 52
27 1 53 54
28 1 55 56
29 1 57 58
30 1 59 60
31 1 61 62
32 1 63 64
33 1 65 66
34 1 67 68
35 1 69 70
36 1 71 72
37 1 73 74
38 1 75 76
39 1 77 78
40 1 79 80
41 1 81 82
42 1 83 84
43 1 85 86
44 1 87 88
45 1 89 90
46 1 91 92
47 1 93 94
48 1 95 96
49 1 97 98
50 1 99 100
51 1 101 102
52 1 103 104
53 1 105 106
54 1 107 108
55 1 109 110
56 1 111 112
57 1 113 114
58 1 115 116
59 1 117 118
60 1 119 120
61 1 121 122
62 1 123 124
63 1 125 126
64 1 127 128
65 1 129 130
66 1 131 132
67 1 133 134
68 1 135 136
69 1 137 138
70 1 139 140
71 1 141 142
72 1 143 144
73 1 145 146
74 1 147 148
75 1 149 150
76 1 151 152
77 1 153 154
78 1 155 156
79 1 157 158
80 1 159 160
81 1 161 162
82 1 163 164
83 1 165 166
84 1 167 168
85 1 169 170
86 1 171 172
87 1 173 174
88 1 175 176
89 1 177 178
90 1 179 180
91 1 181 182
92 1 183 184
93 1 185 186
94 1 187 188
95 1 189 190
96 1 191 192
97 1 193 194
98 1 195 196
99 1 197 198
100 1 199 200
101 1 201 202
102 1 203 204
103 1 205 206
104 1 207 208
105 1 209 210
106 1 211 212
107 1 213 214
108 1 215 216
109 1 217 218
110 1 219 220
111 1 221 222
112 1 223 224
113 1 225 226
114 1 227 228
115 1 229 230
116 1 231 232
117 1 233 234
118 1 235 236
119 1 237 238
120 1 239 240
121 1 241 242
122 1 243 244
123 1 245 246
124 1 247 248
125 1 249 250
126 1 251 252
127 1 253 254
128 1 255 256
129 1 257 258
130 1 259 260
131 1 261 262
132 1 263 264
133 1 265 266
134 1 267 268
135 1 269 270
136 1 271 272
137 1 273 274
138 1 275 276
139 1 277 278
140 1 279 280
141 1 281 282
142 1 283 284
143 1 285 286
144 1 287 288
145 1 289 290
146 1 291 292
147 1 293 294
148 1 295 296
149 1 297 298
150 1 299 300
151 1 301 302
152 1 303 304
153 1 305 306
154 1 307 308
155 1 309 310
156 1 311 312
157 1 313 314
158 1 315 316
159 1 317 318
160 1 319 320
161 1 321 322
162 1 323 324
163 1 325 326
164 1 327 328
165 1 329 330
166 1 331 332
167 1 333 334
168 1 335 336
169 1 337 338
170 1 339 340
171 1 341 342
172 1 343 344
173 1 345 346
174 1 347 348
175 1 349 350
176 1 351 352
177 1 353 354
178 1 355 356
179 1 357 358
180 1 359 360
181 1 361 362
182 1 363 364
183 1 365 366
184 1 367 368
185 1 369 370
186 1 371 372
187 1 373 374
188 1 375 376
189 1 377 378
190 1 379 380
191 1 381 382
192 1 383 384
193 1 385 386
194 1 387 388
195 1 389 390
196 1 391 392
197 1 393 394
198 1 395 396
199 1 397 398
200 1 399 400
201 1 401 402
202 1 403 404
203 1 405 406
204 1 407 408
205 1 409 410
206 1 411 412
207 1 413 414
208 1 415 416
209 1 417 418
210 1 419 420
211 1 421 422
212 1 423 424
213 1 425 426
214 1 427 428
215 1 429 430
216 1 431 432
217 1 433 434
218 1 435 436
219 1 437 438
220 1 439 440
221 1 441 442
222 1 443 444
223 1 445 446
224 1 447 448
225 1 449 450
226 1 451 452
227 1 453 454
228 1 455 456
229 1 457 458
230 1 459 460
231 1 461 462
232 1 463 464
233 1 465 466
234 1 467 468
235 1 469 470
236 1 471 472
237 1 473 474
238 1 475 476
239 1 477 478
240 1 479 480
241 1 481 482
242 1 483 484
243 1 485 486
244 1 487 488
245 1 489 490
246 1 491 492
247 1 493 494
248 1 495 496
249 1 497 498
250 1 499 500
251 1 501 502
252 1 503 504
253 1 505 506
254 1 507 508
255 1 509 510
256 1 511 512
257 1 513 514
258 1 515 516
259 1 517 518
260 1 519 520
261 1 521 522
262 1 523 524
263 1 525 526
264 1 527 528
265 1 529 530
266 1 531 532
267 1 533 534
268 1 535 536
269 1 537 538
270 1 539 540
271 1 541 542
272 1 543 544
273 1 545 546
274 1 547 548
275 1 549 550
276 1 551 552
277 1 553 554
278 1 555 556
279 1 557 558
280 1 559 560
281 1 561 562
282 1 563 564
283 1 565 566
284 1 567 568
285 1 569 570
286 1 571 572
287 1 573 574
288 1 575 576
289 1 577 578
290 1 579 580
291 1 581 582
292 1 583 584
293 1 585 586
294 1 587 588
295 1 589 590
296 1 591 592
297 1 593 594
298 1 595 596
299 1 597 598
300 1 599 600