LAMMPS UA chain data file

1200 atoms
900 bonds
600 angles
300 dihedrals

1 atom types
1 bond types
1 angle types
1 dihedral types

-23.471697 23.471697 xlo xhi
-23.471697 23.471697 ylo yhi
-23.471697 23.471697 zlo zhi

Masses

1 17.0

Atoms

1 1 1 -1.6574 -23.0254 -15.5599
2 1 1 -1.4278 -22.8609 -15.1675
3 1 1 -1.831 -23.1074 -16.1852
4 1 1 -1.489 -23.4717 -15.1934
5 2 1 -3.896 0.3408 -2.7976
6 2 1 -3.0365 0.908 -2.3363
7 2 1 -4.6639 -0.0036 -2.3403
8 2 1 -4.1928 -0.7398 -1.5456
9 3 1 18.6268 -8.1299 17.5766
10 3 1 19.031 -8.2771 18.4459
11 3 1 17.6645 -8.5595 17.472
12 3 1 18.4421 -8.3744 17.8745
13 4 1 8.7245 2.6106 -9.6979
14 4 1 9.0267 3.6039 -9.842
15 4 1 9.3139 2.2992 -10.3516
16 4 1 10.0311 2.8915 -9.9597
17 5 1 12.0338 -3.3821 -9.1685
18 5 1 12.0433 -3.1554 -9.5224
19 5 1 12.0833 -4.3777 -8.8094
20 5 1 12.2737 -3.5901 -7.9716
21 6 1 14.5899 15.0862 22.1262
22 6 1 14.9892 14.7643 21.6507
23 6 1 14.3746 16.0335 21.1436
24 6 1 14.5423 16.7376 20.9919
25 7 1 15.461 10.381 9.0465
26 7 1 15.732 11.2209 8.1946
27 7 1 14.6419 10.9804 9.9756
28 7 1 14.0466 10.2252 10.5653
29 8 1 -4.9986 -3.4329 -12.9264
30 8 1 -4.675 -3.5488 -12.9447
31 8 1 -5.8399 -3.9212 -13.7559
32 8 1 -5.6904 -3.3927 -13.6308
33 9 1 -7.7569 11.821 2.434
34 9 1 -7.9135 11.9968 2.1024
35 9 1 -8.1759 12.6318 1.4456
36 9 1 -7.3819 13.0723 1.9841
37 10 1 3.5487 22.6037 17.2099
38 10 1 4.3642 23.3947 17.8207
39 10 1 3.4801 22.8872 16.3537
40 10 1 3.3596 22.2596 15.8442
41 11 1 -4.5957 17.7492 -12.0194
42 11 1 -5.5869 16.9032 -12.133
43 11 1 -4.7279 17.3306 -11.0768
44 11 1 -5.5901 16.9025 -10.6756
45 12 1 1.8943 -18.984 -20.8753
46 12 1 1.9048 -19.6427 -20.3029
47 12 1 2.4729 -19.8586 -20.2921
48 12 1 1.7999 -19.7827 -21.2257
49 13 1 -17.3011 16.1772 17.2912
50 13 1 -17.6695 15.7788 17.4573
51 13 1 -17.6919 16.5862 17.5271
52 13 1 -18.2985 17.2757 16.922
53 14 1 -19.5136 17.7716 -3.1192
54 14 1 -20.1676 17.6412 -3.5068
55 14 1 -19.4361 18.0585 -2.5627
56 14 1 -18.5262 17.7782 -1.8439
57 15 1 -6.3835 -2.6143 17.0999
58 15 1 -7.1867 -2.6165 17.0262
59 15 1 -6.621 -2.0164 16.9372
60 15 1 -5.6999 -1.4735 16.7627
61 16 1 -21.8091 -13.7474 -17.9957
62 16 1 -21.3854 -13.3071 -17.8675
63 16 1 -21.4207 -12.8454 -17.6306
64 16 1 -21.8863 -13.2149 -18.2718
65 17 1 3.4257 -0.8759 5.5516
66 17 1 3.5542 -0.823 6.2004
67 17 1 4.3443 0.1005 5.971
68 17 1 4.022 0.052 5.9935
69 18 1 -12.655 -16.9786 10.3387
70 18 1 -12.4443 -16.4551 10.3178
71 18 1 -11.8906 -17.0091 10.2142
72 18 1 -12.5009 -17.8718 10.368
73 19 1 21.3557 -17.8549 -21.215
74 19 1 21.6135 -17.1323 -21.0811
75 19 1 20.9656 -17.4105 -20.3209
76 19 1 21.7312 -16.6715 -20.6935
77 20 1 -19.7868 -8.3444 21.8323
78 20 1 -20.6455 -7.5724 21.333
79 20 1 -19.3253 -7.5193 21.2068
80 20 1 -19.9544 -7.321 21.6677
81 21 1 -11.2024 14.7025 -22.1375
82 21 1 -11.409 13.9187 -21.1715
83 21 1 -10.9384 15.3044 -21.2051
84 21 1 -11.577 14.6555 -21.6067
85 22 1 -6.7496 3.6997 -20.8651
86 22 1 -6.9813 4.4611 -20.0086
87 22 1 -7.2747 3.2875 -20.2864
88 22 1 -7.2649 3.1986 -20.8117
89 23 1 -9.8995 -4.6862 6.7514
90 23 1 -9.2506 -4.9016 5.872
91 23 1 -10.2075 -5.5779 5.764
92 23 1 -9.7646 -5.2146 6.6658
93 24 1 7.5226 -13.0659 0.1089
94 24 1 8.233 -13.3963 -0.0747
95 24 1 7.4986 -13.633 0.6637
96 24 1 7.8811 -14.6187 1.6146
97 25 1 -9.516 7.1246 -21.4291
98 25 1 -10.4495 6.9959 -21.2709
99 25 1 -9.8919 7.7242 -21.9648
100 25 1 -10.1223 8.3973 -22.3885
101 26 1 13.8279 -0.8886 -10.7663
102 26 1 14.2818 -1.1885 -11.0198
103 26 1 14.7402 -1.1489 -10.2897
104 26 1 14.6578 -1.0822 -10.8849
105 27 1 11.1061 15.9328 -11.7835
106 27 1 10.9882 14.9493 -12.7373
107 27 1 12.0026 16.5791 -12.2726
108 27 1 12.6857 16.7635 -11.8161
109 28 1 12.4249 7.8918 15.2478
110 28 1 13.1994 8.3147 14.3007
111 28 1 13.0051 8.3429 15.5962
112 28 1 12.6922 7.9004 15.3948
113 29 1 19.5447 -3.1728 -16.6504
114 29 1 19.5416 -3.2422 -16.6145
115 29 1 18.8376 -3.7796 -16.9823
116 29 1 19.1032 -4.5554 -16.6678
117 30 1 -17.9653 4.9393 -13.3866
118 30 1 -17.4809 4.9885 -12.8905
119 30 1 -17.7675 5.5881 -12.4015
120 30 1 -17.36 4.9258 -12.033
121 31 1 9.899 -11.5487 6.5278
122 31 1 9.3186 -12.5412 6.9747
123 31 1 9.4615 -10.8115 7.2819
124 31 1 9.8236 -10.4766 7.5653
125 32 1 3.2401 -13.6885 1.4638
126 32 1 2.9412 -12.7344 0.4648
127 32 1 3.2946 -14.5091 2.067
128 32 1 3.4093 -13.6703 1.4164
129 33 1 -8.4464 -12.4022 -5.4491
130 33 1 -8.527 -13.371 -6.3036
131 33 1 -7.6825 -13.1962 -4.5899
132 33 1 -6.8557 -12.6418 -4.5078
133 34 1 -14.6622 -20.4578 5.3491
134 34 1 -13.73 -19.7625 6.1401
135 34 1 -13.9956 -20.3888 6.2124
136 34 1 -13.6609 -20.9476 5.9346
137 35 1 13.3862 -23.411 13.8841
138 35 1 13.7824 -23.3313 14.4796
139 35 1 13.8635 -23.3563 13.5473
140 35 1 14.8047 -23.4717 13.6098
141 36 1 -14.3354 23.069 -15.2904
142 36 1 -14.3173 22.9418 -14.5514
143 36 1 -13.6021 23.0343 -15.4408
144 36 1 -13.5156 22.9288 -15.1894
145 37 1 3.3411 12.2108 -13.8519
146 37 1 3.9663 12.8698 -13.1962
147 37 1 3.608 11.9197 -13.4466
148 37 1 3.5177 12.461 -14.3341
149 38 1 -7.9136 6.7288 1.9529
150 38 1 -7.441 6.5592 0.9896
151 38 1 -7.3447 6.7828 2.4422
152 38 1 -8.0001 6.1133 2.1242
153 39 1 0.4028 16.6413 -23.0278
154 39 1 1.0232 17.1802 -23.4044
155 39 1 -0.0163 17.0259 -23.2236
156 39 1 -0.514 17.4808 -23.4717
157 40 1 -22.603 -18.5057 2.8441
158 40 1 -23.4717 -19.4896 2.2456
159 40 1 -22.7056 -17.6852 3.6065
160 40 1 -22.7846 -16.9252 4.1863
161 41 1 18.3584 11.7089 2.5066
162 41 1 18.0007 11.3492 2.2282
163 41 1 18.423 12.638 2.9638
164 41 1 19.4162 13.3423 2.019
165 42 1 0.6184 -16.5463 1.0841
166 42 1 -0.2842 -16.6487 0.2421
167 42 1 1.2908 -16.6444 0.34
168 42 1 0.4877 -16.5987 0.6378
169 43 1 -23.2816 3.8949 -20.5804
170 43 1 -23.4717 4.2857 -21.5369
171 43 1 -23.0741 3.8544 -21.157
172 43 1 -22.6647 3.8277 -20.592
173 44 1 18.5407 18.9913 -17.3765
174 44 1 19.2535 18.5987 -16.6222
175 44 1 17.8366 18.1715 -18.3301
176 44 1 18.7547 18.5693 -18.6837
177 45 1 1.2398 -19.2693 -16.9446
178 45 1 0.3795 -19.0464 -16.1729
179 45 1 0.2672 -19.4486 -17.3942
180 45 1 0.4031 -19.4559 -18.3136
181 46 1 14.6586 22.6298 15.3772
182 46 1 14.8584 23.1235 14.4344
183 46 1 13.8154 21.9365 15.3547
184 46 1 14.7967 21.3065 16.3487
185 47 1 19.468 -21.593 -5.9036
186 47 1 20.0104 -22.1356 -5.6241
187 47 1 19.9893 -21.8822 -5.5787
188 47 1 20.959 -21.8563 -5.126
189 48 1 0.0073 3.2693 22.3068
190 48 1 -0.661 4.1916 23.0479
191 48 1 -0.5954 3.7252 22.4247
192 48 1 -1.2626 3.5825 23.2736
193 49 1 12.9933 -13.2003 -19.7747
194 49 1 13.6162 -13.8354 -19.2052
195 49 1 12.0183 -13.6142 -20.5761
196 49 1 11.1077 -13.4057 -20.4976
197 50 1 -14.5302 21.7056 5.3863
198 50 1 -15.1042 21.4441 5.5235
199 50 1 -13.7636 20.8738 4.6012
200 50 1 -13.7978 21.1237 5.1785
201 51 1 -7.4 -18.4783 -16.4645
202 51 1 -8.0194 -18.8041 -17.1073
203 51 1 -6.4019 -18.6556 -16.2921
204 51 1 -7.1512 -18.5131 -15.9452
205 52 1 -20.0458 -5.6288 6.2268
206 52 1 -20.8614 -6.3187 6.1755
207 52 1 -19.7331 -6.5693 6.9448
208 52 1 -18.9574 -6.5845 6.5352
209 53 1 18.6267 16.072 -13.5501
210 53 1 18.8285 16.7299 -12.5963
211 53 1 18.511 15.5891 -14.3493
212 53 1 17.5764 16.3986 -14.0892
213 54 1 -8.1376 22.4134 -11.9409
214 54 1 -8.2178 21.7406 -12.2049
215 54 1 -7.869 21.8596 -12.176
216 54 1 -6.8977 22.3766 -11.6435
217 55 1 -5.8308 -5.4138 -15.2619
218 55 1 -5.6025 -5.8142 -15.9774
219 55 1 -4.8504 -4.8988 -14.288
220 55 1 -5.0588 -5.8158 -14.743
221 56 1 22.8475 4.0309 21.5792
222 56 1 23.2124 4.8038 22.0857
223 56 1 22.1651 4.525 21.9228
224 56 1 21.6123 4.8727 21.4972
225 57 1 16.5333 -20.9958 -4.4622
226 57 1 17.2601 -20.9642 -4.4312
227 57 1 16.0793 -21.2237 -5.0642
228 57 1 16.6039 -20.5911 -4.0869
229 58 1 9.0345 -6.0397 -13.7571
230 58 1 8.2566 -6.408 -13.2077
231 58 1 9.8097 -5.8499 -12.8843
232 58 1 9.4801 -5.8423 -12.2459
233 59 1 -1.7534 21.8877 -15.3814
234 59 1 -1.7601 21.9631 -14.9288
235 59 1 -2.0529 20.9294 -15.7039
236 59 1 -2.6266 20.9525 -16.1699
237 60 1 -22.5771 -4.3546 14.3331
238 60 1 -22.9842 -5.026 14.8698
239 60 1 -22.4422 -3.7353 13.4147
240 60 1 -22.0331 -3.3919 12.8512
241 61 1 -18.8824 -6.976 -16.968
242 61 1 -17.9846 -7.3374 -17.1276
243 61 1 -18.4191 -6.7244 -16.6928
244 61 1 -18.1221 -6.9313 -16.8535
245 62 1 18.5202 -15.8664 15.2847
246 62 1 18.6877 -15.5863 15.1169
247 62 1 17.5884 -15.8679 16.0698
248 62 1 16.6225 -15.9269 15.3199
249 63 1 -1.635 14.6789 13.9441
250 63 1 -2.3998 14.8901 13.1457
251 63 1 -1.4531 13.753 13.1405
252 63 1 -1.8121 14.3983 13.2074
253 64 1 21.2964 -5.5434 -19.6849
254 64 1 20.3137 -4.6648 -19.8365
255 64 1 21.3874 -6.5055 -20.44
256 64 1 20.7341 -7.4518 -20.1697
257 65 1 -11.2197 11.4969 1.235
258 65 1 -11.6653 11.0032 0.6588
259 65 1 -11.7943 11.9558 0.4903
260 65 1 -11.5724 11.0774 0.7161
261 66 1 0.8479 3.8356 -1.4425
262 66 1 0.6613 4.7244 -2.405
263 66 1 1.4768 4.2685 -1.0162
264 66 1 0.867 4.6825 -0.6346
265 67 1 23.4057 -23.1678 -0.1979
266 67 1 23.1581 -22.6483 -0.3362
267 67 1 23.4717 -23.2909 -0.6525
268 67 1 23.4717 -22.3389 -1.5003
269 68 1 5.4816 -13.9076 15.0234
270 68 1 5.5175 -13.8389 15.6246
271 68 1 5.0759 -13.7297 15.1575
272 68 1 4.9213 -13.3987 15.9018
273 69 1 6.0545 6.9914 1.5727
274 69 1 5.3193 7.0564 2.5012
275 69 1 6.8019 7.4773 2.1557
276 69 1 7.1652 7.5634 3.1244
277 70 1 19.9405 17.0627 6.7136
278 70 1 19.2802 16.3643 7.1424
279 70 1 20.7694 17.1167 6.9973
280 70 1 19.8877 16.347 6.564
281 71 1 -6.0806 4.6135 -4.8892
282 71 1 -5.2741 3.7563 -4.3478
283 71 1 -5.642 5.5125 -5.4553
284 71 1 -6.527 5.2711 -5.7454
285 72 1 -13.1143 -12.7628 -17.6757
286 72 1 -13.899 -13.6979 -17.4699
287 72 1 -12.7563 -13.6086 -17.0203
288 72 1 -12.2829 -14.1255 -17.6681
289 73 1 2.8216 4.5085 3.0869
290 73 1 2.6849 4.8257 3.3461
291 73 1 2.2527 5.3427 2.6991
292 73 1 2.2946 4.3507 3.4933
293 74 1 -6.1647 5.5217 9.0287
294 74 1 -5.8736 6.1517 8.4742
295 74 1 -7.1193 6.1254 9.6125
296 74 1 -6.2526 6.878 9.5529
297 75 1 13.0502 15.4008 -9.1579
298 75 1 13.6645 15.6504 -8.3633
299 75 1 13.5696 14.8398 -9.4316
300 75 1 13.1577 14.4279 -10.2135
301 76 1 6.2961 -23.1847 -0.9794
302 76 1 6.6541 -23.4717 -1.8683
303 76 1 6.0268 -23.2218 -0.8927
304 76 1 5.7483 -23.4717 -0.1452
305 77 1 10.6166 -23.2815 16.903
306 77 1 10.9145 -23.4717 17.5603
307 77 1 10.3438 -22.3105 16.6248
308 77 1 10.8602 -22.1138 16.4666
309 78 1 1.9798 -11.7776 -13.2684
310 78 1 1.4529 -12.2412 -12.803
311 78 1 1.001 -12.1667 -12.8092
312 78 1 0.1336 -11.856 -13.7382
313 79 1 -2.6894 -11.0759 16.5084
314 79 1 -3.0163 -10.3698 16.9292
315 79 1 -1.8774 -10.6932 16.7602
316 79 1 -1.36 -10.2433 16.549
317 80 1 9.3266 -12.884 2.2677
318 80 1 8.9098 -13.4205 2.0711
319 80 1 8.5972 -12.9792 1.3763
320 80 1 9.4119 -12.9498 1.9603
321 81 1 -21.9491 -11.3408 -3.5173
322 81 1 -21.1473 -12.0023 -3.2965
323 81 1 -22.8715 -10.4515 -3.1919
324 81 1 -23.0714 -10.0833 -3.6128
325 82 1 17.2977 10.5725 20.0703
326 82 1 16.9348 10.8967 19.6232
327 82 1 17.1986 10.4791 20.8952
328 82 1 16.5713 11.3603 21.6883
329 83 1 -16.2017 -12.2617 19.5848
330 83 1 -15.7422 -12.149 19.3486
331 83 1 -15.9392 -12.4147 20.1316
332 83 1 -15.8814 -13.2462 20.169
333 84 1 -18.6364 -18.5163 -9.001
334 84 1 -19.2733 -18.6452 -9.9511
335 84 1 -19.3087 -17.7869 -8.2661
336 84 1 -19.0045 -18.4651 -8.4588
337 85 1 -10.0749 -13.9432 -8.0254
338 85 1 -10.6711 -13.9151 -7.5446
339 85 1 -10.0943 -14.1483 -8.9691
340 85 1 -10.7831 -14.1308 -9.9001
341 86 1 -7.6484 10.4894 8.0232
342 86 1 -6.7353 10.9394 8.4231
343 86 1 -7.3072 10.1593 7.0514
344 86 1 -8.001 9.7148 6.0632
345 87 1 -7.9971 -11.1855 -0.6964
346 87 1 -7.7428 -12.1277 0.1004
347 87 1 -8.4456 -11.4296 0.0397
348 87 1 -7.7186 -11.1294 0.3695
349 88 1 22.0296 4.1031 -4.2741
350 88 1 22.9924 3.8723 -3.2979
351 88 1 21.3194 3.7298 -5.2355
352 88 1 21.7776 4.47 -6.0463
353 89 1 4.5152 -16.4557 -0.1492
354 89 1 4.3416 -16.0173 0.5903
355 89 1 5.466 -16.2319 0.7651
356 89 1 4.8512 -16.9441 1.669
357 90 1 -2.9004 15.2769 -16.5827
358 90 1 -2.492 15.7359 -16.3499
359 90 1 -3.332 16.1216 -16.8878
360 90 1 -4.0989 16.7614 -16.6498
361 91 1 -18.7561 -17.0866 -18.7408
362 91 1 -18.4081 -17.4325 -18.0754
363 91 1 -18.0909 -16.3519 -18.0214
364 91 1 -17.37 -17.1667 -18.2812
365 92 1 17.1206 4.9384 8.2763
366 92 1 17.3432 4.4437 7.8608
367 92 1 16.5843 4.4862 7.853
368 92 1 17.1398 5.4668 7.4601
369 93 1 15.0827 10.0115 12.0464
370 93 1 15.1021 10.7396 12.6023
371 93 1 14.4533 9.3101 12.8975
372 93 1 15.3162 8.4039 13.0218
373 94 1 0.5048 -4.6053 -2.163
374 94 1 0.5683 -5.0531 -1.6373
375 94 1 -0.13 -5.4688 -1.8418
376 94 1 0.6079 -6.2074 -1.4685
377 95 1 23.2685 -10.1688 0.528
378 95 1 23.4717 -10.5688 0.1379
379 95 1 23.0234 -9.5353 -0.3282
380 95 1 23.4717 -8.5662 0.0638
381 96 1 -0.8632 -7.4049 -23.2917
382 96 1 -0.3532 -7.6702 -22.4701
383 96 1 -0.2346 -7.3505 -23.4717
384 96 1 0.1937 -8.0165 -22.9711
385 97 1 10.7207 -20.0105 -6.0423
386 97 1 10.6114 -21.0082 -5.0574
387 97 1 9.8201 -19.9852 -6.9824
388 97 1 9.0043 -19.503 -6.68
389 98 1 -0.0375 7.3013 -8.5434
390 98 1 0.8242 7.6299 -8.0505
391 98 1 -0.3211 6.8256 -9.4202
392 98 1 0.0094 6.9198 -10.0341
393 99 1 5.0127 -8.1574 -11.689
394 99 1 4.8576 -7.6859 -12.2078
395 99 1 5.0172 -8.9972 -11.6553
396 99 1 5.5007 -8.4544 -12.2231
397 100 1 16.6432 18.4169 -3.9405
398 100 1 17.0296 17.6305 -4.8664
399 100 1 17.3603 19.1296 -4.671
400 100 1 17.1298 19.1847 -5.3219
401 101 1 19.9282 -21.7205 -0.4845
402 101 1 20.5191 -21.6188 -0.852
403 101 1 19.0566 -21.9064 -0.3499
404 101 1 18.6416 -22.1232 -1.1709
405 102 1 20.589 -17.2418 -1.8354
406 102 1 21.0866 -17.7611 -1.1602
407 102 1 20.151 -18.096 -1.3765
408 102 1 20.8969 -18.903 -1.2633
409 103 1 1.0846 -3.1457 3.4408
410 103 1 1.4077 -2.5653 2.4579
411 103 1 1.186 -2.6212 4.0918
412 103 1 1.9466 -2.244 4.0216
413 104 1 18.3216 2.0052 -21.797
414 104 1 18.7233 1.1657 -21.0846
415 104 1 17.9745 1.9131 -21.2056
416 104 1 18.3921 1.6526 -21.1768
417 105 1 14.6511 -0.2487 -12.5758
418 105 1 13.9114 0.1192 -11.8821
419 105 1 15.6249 -0.7336 -12.4909
420 105 1 14.7861 -0.2158 -12.8628
421 106 1 -11.0936 -2.212 -8.5389
422 106 1 -10.4149 -1.6985 -9.5233
423 106 1 -11.5913 -2.9118 -7.9404
424 106 1 -11.9739 -3.82 -6.9909
425 107 1 8.9464 -10.3708 19.3742
426 107 1 9.128 -11.3037 20.2567
427 107 1 8.6201 -9.8531 19.2538
428 107 1 9.3003 -10.2215 18.4775
429 108 1 1.1353 -17.528 -1.11
430 108 1 1.2004 -18.0416 -1.6274
431 108 1 2.0768 -16.7666 -1.5559
432 108 1 1.8434 -16.2024 -1.7436
433 109 1 -21.6995 2.0141 21.2225
434 109 1 -21.8402 1.6008 20.7947
435 109 1 -20.7276 1.6415 21.5821
436 109 1 -21.4587 1.6073 21.253
437 110 1 16.5428 3.1184 0.354
438 110 1 17.3367 2.6895 -0.0719
439 110 1 16.5318 4.0419 0.8374
440 110 1 15.753 4.4072 1.3389
441 111 1 -13.0723 -19.1331 13.9706
442 111 1 -12.1378 -19.148 14.1088
443 111 1 -12.8469 -19.07 13.2402
444 111 1 -13.7434 -18.8273 12.3992
445 112 1 -17.2152 -0.9579 -3.7508
446 112 1 -17.3839 -1.1597 -4.1502
447 112 1 -16.2224 -1.6255 -3.7816
448 112 1 -16.3427 -0.7279 -3.3937
449 113 1 -21.0786 -12.1711 14.0416
450 113 1 -21.8355 -11.3516 13.398
451 113 1 -20.3806 -11.7978 13.2863
452 113 1 -19.6936 -11.8318 13.0033
453 114 1 -9.8556 14.0616 -1.8126
454 114 1 -9.0389 14.0311 -2.7806
455 114 1 -9.4199 13.7682 -2.5193
456 114 1 -9.3234 13.1067 -1.5557
457 115 1 -19.4988 -0.7167 5.8141
458 115 1 -19.1538 -0.4386 5.1632
459 115 1 -19.1735 -0.8509 6.2125
460 115 1 -19.1631 -0.5104 5.2771
461 116 1 8.447 -5.877 9.6983
462 116 1 8.2736 -6.4281 8.8209
463 116 1 8.6916 -5.0106 9.0293
464 116 1 9.294 -4.7582 9.21
465 117 1 -5.6815 14.4078 -1.5993
466 117 1 -5.234 14.4693 -1.7497
467 117 1 -6.3509 13.4316 -1.2221
468 117 1 -6.4772 13.3432 -1.6643
469 118 1 19.0647 14.1343 4.1751
470 118 1 18.4482 13.937 4.0031
471 118 1 18.4779 13.3036 5.0316
472 118 1 17.5959 12.8149 5.9559
473 119 1 11.1756 0.3619 21.2345
474 119 1 10.4022 1.1444 21.9751
475 119 1 10.2013 0.8734 20.5346
476 119 1 10.8895 1.0593 19.6227
477 120 1 -18.1491 21.4896 20.1806
478 120 1 -18.1373 20.6054 20.5008
479 120 1 -18.1849 21.8067 19.7638
480 120 1 -18.9092 21.9834 20.7148
481 121 1 6.5916 -19.5301 -11.4919
482 121 1 6.8196 -20.2621 -10.5813
483 121 1 7.2566 -18.9627 -10.8656
484 121 1 6.545 -18.9749 -11.7975
485 122 1 -9.2035 13.7562 -8.9503
486 122 1 -8.6576 13.3994 -9.2123
487 122 1 -8.8729 14.2786 -8.2363
488 122 1 -9.3598 14.0682 -7.4807
489 123 1 -0.3604 10.4393 -19.5882
490 123 1 -0.1859 9.9525 -20.2231
491 123 1 0.4799 9.8812 -20.5126
492 123 1 -0.3857 9.843 -21.3899
493 124 1 7.434 -15.5269 8.084
494 124 1 7.3587 -14.7306 7.3615
495 124 1 8.0179 -14.7009 7.1774
496 124 1 8.1573 -14.3383 7.1593
497 125 1 -11.5799 1.4793 19.8039
498 125 1 -10.8381 1.2764 19.5418
499 125 1 -11.8227 0.5604 20.1535
500 125 1 -12.6202 1.0379 20.1681
501 126 1 -6.0956 11.4832 13.0098
502 126 1 -5.1127 12.1056 13.9942
503 126 1 -6.7177 12.4552 13.6096
504 126 1 -7.6938 12.6598 14.3761
505 127 1 -22.043 -3.197 7.5462
506 127 1 -22.6613 -3.173 7.6529
507 127 1 -22.1436 -3.1698 7.7307
508 127 1 -22.6841 -3.7978 7.5578
509 128 1 20.0681 16.6553 20.7821
510 128 1 20.1709 16.1577 19.7963
511 128 1 20.1902 17.0979 19.8578
512 128 1 19.3131 18.005 20.4191
513 129 1 2.092 9.4347 13.2519
514 129 1 2.1467 9.2521 12.3631
515 129 1 1.5449 8.6983 12.7999
516 129 1 2.2235 8.889 13.6911
517 130 1 -19.7285 -22.9133 18.5207
518 130 1 -20.5888 -23.1378 19.4048
519 130 1 -18.8993 -22.8921 19.3538
520 130 1 -18.9373 -23.4717 19.2885
521 131 1 -17.2579 -6.5353 13.0387
522 131 1 -16.5248 -6.3797 12.0827
523 131 1 -18.1114 -5.9663 13.5216
524 131 1 -17.7565 -6.0183 13.3375
525 132 1 -5.8399 -18.9316 -17.303
526 132 1 -5.9613 -19.561 -17.2638
527 132 1 -6.5457 -18.4856 -17.7715
528 132 1 -6.5097 -18.5585 -18.3879
529 133 1 22.8456 -9.9874 -16.9091
530 133 1 21.9644 -10.5985 -17.4465
531 133 1 22.4221 -10.5447 -17.696
532 133 1 21.7864 -11.3304 -17.8511
533 134 1 -9.5041 -15.867 11.2149
534 134 1 -9.7487 -16.2491 11.9858
535 134 1 -9.516 -16.0538 10.7131
536 134 1 -10.0493 -15.1996 10.5059
537 135 1 -4.298 -18.6879 9.2952
538 135 1 -4.347 -18.0204 8.4941
539 135 1 -5.1941 -19.3742 9.1624
540 135 1 -4.2027 -18.6693 8.3753
541 136 1 -13.3451 0.2106 -3.1807
542 136 1 -13.4448 0.6918 -2.8693
543 136 1 -13.6441 0.2517 -2.7932
544 136 1 -14.0751 0.3172 -3.3857
545 137 1 18.3083 -3.5088 1.4522
546 137 1 17.6369 -2.8349 0.4778
547 137 1 18.8766 -4.1655 1.3918
548 137 1 19.497 -4.5135 0.4017
549 138 1 12.3487 16.9536 18.9498
550 138 1 12.8307 16.0459 18.2337
551 138 1 12.5666 17.9213 18.0332
552 138 1 11.8899 18.8576 18.1139
553 139 1 5.104 -19.895 15.3542
554 139 1 4.6046 -19.418 14.5797
555 139 1 5.4965 -20.598 14.8978
556 139 1 5.4904 -19.8696 14.0691
557 140 1 -7.2193 11.4221 11.6724
558 140 1 -7.7914 11.3489 12.4995
559 140 1 -6.3933 11.2055 10.8668
560 140 1 -6.9547 10.3208 10.8038
561 141 1 -14.4801 11.0818 8.7665
562 141 1 -13.9957 11.72 9.7283
563 141 1 -13.8185 10.918 9.4321
564 141 1 -14.3186 10.3208 10.3892
565 142 1 -11.2373 -7.5932 -20.712
566 142 1 -11.0379 -6.93 -21.3521
567 142 1 -11.7333 -7.7193 -21.5093
568 142 1 -12.2251 -6.8156 -22.5008
569 143 1 -12.8825 -20.9728 -20.6821
570 143 1 -12.4524 -20.2924 -19.8525
571 143 1 -12.4412 -21.4583 -21.0847
572 143 1 -12.6584 -21.3277 -21.033
573 144 1 7.0384 -15.2521 -6.546
574 144 1 6.6672 -15.1945 -6.4939
575 144 1 7.4238 -15.6962 -7.4843
576 144 1 7.2242 -14.8463 -7.4997
577 145 1 -19.0351 -14.5883 -12.1179
578 145 1 -19.0355 -14.9961 -12.5651
579 145 1 -18.5177 -14.7668 -11.8198
580 145 1 -19.405 -14.8454 -11.1399
581 146 1 6.6301 2.1342 16.7892
582 146 1 6.0649 2.9309 15.8954
583 146 1 7.3743 2.0784 17.4916
584 146 1 7.0491 1.2989 16.8464
585 147 1 6.4811 22.1837 -7.2271
586 147 1 6.2078 21.3599 -6.9313
587 147 1 6.888 22.9357 -7.3383
588 147 1 6.5661 22.4336 -6.7562
589 148 1 13.5697 9.6251 -7.3882
590 148 1 14.2028 9.407 -7.5973
591 148 1 13.2432 10.1192 -8.1235
592 148 1 14.0415 9.7879 -8.5653
593 149 1 -18.1549 -21.9573 -18.7089
594 149 1 -18.9346 -22.2215 -18.249
595 149 1 -17.6333 -22.5591 -18.4435
596 149 1 -18.5675 -22.7328 -19.1721
597 150 1 -6.664 22.016 19.5897
598 150 1 -6.3035 22.4259 20.2549
599 150 1 -5.748 21.6194 19.3752
600 150 1 -6.5863 21.6639 18.396
601 151 1 6.6028 -3.3529 23.1151
602 151 1 6.982 -4.0924 22.1937
603 151 1 6.8311 -3.2382 22.6431
604 151 1 7.5404 -2.9311 23.2492
605 152 1 14.2876 -18.0191 -14.6014
606 152 1 14.3659 -18.4087 -15.5379
607 152 1 14.8044 -17.3826 -14.48
608 152 1 15.0432 -16.6334 -14.4116
609 153 1 -11.7571 8.9754 7.7091
610 153 1 -12.5631 8.894 8.2867
611 153 1 -11.9182 8.3074 7.3239
612 153 1 -12.4759 8.8314 7.33
613 154 1 16.1858 -16.9204 13.0577
614 154 1 15.5451 -17.1253 12.1606
615 154 1 16.9453 -17.4819 12.8804
616 154 1 16.9629 -17.223 12.6383
617 155 1 -21.4938 0.8593 6.4133
618 155 1 -22.0384 0.7361 7.3381
619 155 1 -20.5351 0.3823 6.1379
620 155 1 -20.4318 0.4211 7.112
621 156 1 -2.0874 -19.262 12.9056
622 156 1 -2.5136 -19.8105 12.4356
623 156 1 -2.5395 -18.6299 12.0635
624 156 1 -2.3347 -19.2206 12.608
625 157 1 -19.9175 -5.1582 -22.6923
626 157 1 -19.7057 -5.2515 -22.0319
627 157 1 -19.5337 -4.352 -23.3965
628 157 1 -20.0598 -3.4691 -23.4682
629 158 1 -3.8269 19.3083 1.7814
630 158 1 -3.3124 18.7206 2.4277
631 158 1 -3.2119 20.1025 2.7751
632 158 1 -2.4628 19.3682 3.4057
633 159 1 -8.153 -15.4587 -4.1556
634 159 1 -7.5721 -16.421 -3.9082
635 159 1 -8.4731 -16.4174 -3.6788
636 159 1 -9.2496 -15.6339 -3.2936
637 160 1 5.3691 -7.6788 -16.4005
638 160 1 4.9103 -7.7384 -16.5849
639 160 1 6.056 -8.4963 -17.3475
640 160 1 7.0312 -7.7683 -17.205
641 161 1 -20.0207 0.2779 -19.6889
642 161 1 -19.5811 -0.4839 -18.7778
643 161 1 -19.8116 1.2233 -19.0638
644 161 1 -20.7623 1.3425 -19.8741
645 162 1 13.5186 15.5053 -18.4892
646 162 1 12.9075 15.8931 -19.0957
647 162 1 13.2982 15.2692 -18.8849
648 162 1 12.8426 15.65 -18.3952
649 163 1 4.3414 15.5954 13.181
650 163 1 4.6908 16.5838 12.7144
651 163 1 3.6425 15.3174 13.0849
652 163 1 4.1264 16.1399 13.6224
653 164 1 20.5276 -6.3302 -8.7504
654 164 1 20.8927 -5.5432 -7.9218
655 164 1 20.6992 -7.1059 -9.73
656 164 1 21.2812 -6.8001 -9.8572
657 165 1 -21.6948 1.1127 -17.948
658 165 1 -22.4245 0.5754 -18.5925
659 165 1 -21.6527 0.1608 -17.8118
660 165 1 -21.3464 -0.8139 -17.6666
661 166 1 17.0036 -5.9143 17.5144
662 166 1 17.712 -6.7906 18.4899
663 166 1 16.856 -6.5862 17.5648
664 166 1 17.0932 -5.6071 16.8405
665 167 1 -14.7401 -21.4226 -7.4937
666 167 1 -14.1439 -22.4116 -6.9873
667 167 1 -13.8131 -20.723 -8.2356
668 167 1 -13.1455 -21.0902 -8.9308
669 168 1 -2.8155 5.7148 -8.1321
670 168 1 -3.5997 5.5733 -7.4251
671 168 1 -2.5695 4.9084 -7.7802
672 168 1 -3.3688 4.8252 -7.2544
673 169 1 21.8849 1.707 -2.8564
674 169 1 22.3243 0.8503 -2.0863
675 169 1 21.5126 1.037 -3.8161
676 169 1 20.9161 1.4082 -3.5348
677 170 1 -5.1681 9.1919 -14.6031
678 170 1 -5.8271 8.7116 -14.8581
679 170 1 -4.8956 8.8495 -14.052
680 170 1 -5.3901 8.5101 -14.1443
681 171 1 2.2259 7.9519 2.5551
682 171 1 2.7552 7.1312 2.9022
683 171 1 2.9381 8.3726 1.5968
684 171 1 2.3425 7.5356 1.8158
685 172 1 21.2042 -4.5596 -12.9723
686 172 1 21.5939 -5.3234 -13.2248
687 172 1 21.3737 -5.0345 -13.5968
688 172 1 21.2875 -5.3271 -12.6375
689 173 1 5.7457 12.5706 -2.2038
690 173 1 6.7107 13.372 -2.4037
691 173 1 5.4247 11.7452 -2.111
692 173 1 6.3427 11.2835 -1.7655
693 174 1 -1.8903 -21.7886 9.5358
694 174 1 -2.3039 -22.201 9.2669
695 174 1 -1.3667 -20.9759 10.277
696 174 1 -1.7568 -21.6944 10.4805
697 175 1 1.9061 -3.3212 -5.8074
698 175 1 2.5536 -3.4223 -4.8701
699 175 1 1.7379 -3.0724 -6.2678
700 175 1 2.4929 -3.9926 -7.0345
701 176 1 4.3249 7.7706 -11.9879
702 176 1 3.5816 7.9757 -12.3381
703 176 1 4.596 6.8435 -12.0929
704 176 1 3.6028 6.3775 -12.3548
705 177 1 5.6239 -0.8394 -19.9601
706 177 1 5.577 -1.0409 -20.8648
707 177 1 5.9853 0.0861 -19.9084
708 177 1 5.5653 0.7246 -20.1461
709 178 1 4.1871 -1.7444 -6.4106
710 178 1 3.9263 -0.853 -6.1948
711 178 1 3.9817 -2.6892 -5.9714
712 178 1 3.5339 -2.9256 -5.3165
713 179 1 20.3354 -19.924 -8.9712
714 179 1 20.2387 -20.9172 -9.4927
715 179 1 21.1126 -19.8237 -9.6523
716 179 1 22.0346 -20.3863 -9.6983
717 180 1 -18.8189 23.3652 -19.2185
718 180 1 -19.2863 23.0625 -19.0194
719 180 1 -17.9808 23.3421 -20.0775
720 180 1 -18.4298 23.4717 -20.7255
721 181 1 -10.1394 18.2359 19.7302
722 181 1 -10.8809 17.4291 18.9601
723 181 1 -9.6688 18.2782 20.0514
724 181 1 -9.1613 18.6461 20.1178
725 182 1 -4.4464 16.4348 -0.3224
726 182 1 -4.6578 15.7449 0.2929
727 182 1 -4.5398 16.8161 -0.1397
728 182 1 -5.0705 16.5207 0.1566
729 183 1 -0.4637 -1.9506 -23.0486
730 183 1 -0.7487 -2.6025 -22.7655
731 183 1 0.3807 -2.1385 -22.966
732 183 1 0.8128 -2.931 -23.4717
733 184 1 -15.4703 -17.506 -0.221
734 184 1 -16.4192 -18.2979 -0.0175
735 184 1 -15.2674 -17.1384 0.6617
736 184 1 -14.4566 -16.4607 -0.0849
737 185 1 23.3191 17.48 6.4272
738 185 1 23.3858 16.7057 5.5388
739 185 1 22.3414 17.8049 6.5386
740 185 1 21.4337 16.8802 7.001
741 186 1 -3.2342 11.2605 -16.9899
742 186 1 -4.2311 11.5583 -17.7651
743 186 1 -2.9952 11.436 -17.3095
744 186 1 -3.4221 11.6949 -16.49
745 187 1 15.636 21.8462 16.4867
746 187 1 16.2279 21.6194 17.3987
747 187 1 16.1078 22.5769 16.2575
748 187 1 16.9663 21.611 16.3237
749 188 1 16.0231 -1.4919 -23.2373
750 188 1 16.724 -1.5486 -23.4717
751 188 1 16.4697 -0.5954 -23.1781
752 188 1 16.6992 0.3578 -23.0182
753 189 1 -8.6129 8.0419 -22.804
754 189 1 -7.8503 8.0378 -23.0788
755 189 1 -9.0106 7.9804 -23.4717
756 189 1 -8.8622 7.6378 -23.4717
757 190 1 10.1548 12.4689 -3.3808
758 190 1 9.8939 12.0563 -2.5293
759 190 1 10.4691 13.1438 -3.8385
760 190 1 9.4827 12.9051 -2.9415
761 191 1 -3.5669 -0.4647 -4.4378
762 191 1 -2.6018 -0.6638 -5.2587
763 191 1 -4.2351 -0.409 -4.9106
764 191 1 -4.5119 -0.6318 -5.4571
765 192 1 16.8611 -14.7581 -18.255
766 192 1 17.2768 -15.1152 -18.2842
767 192 1 17.562 -15.0589 -18.7018
768 192 1 18.125 -14.5088 -18.9745
769 193 1 -15.3439 -19.7578 17.6123
770 193 1 -15.0998 -19.9915 18.3399
771 193 1 -15.1732 -20.711 16.7717
772 193 1 -15.9113 -21.4068 17.5692
773 194 1 -15.2946 -5.3086 -9.7769
774 194 1 -16.0347 -6.2119 -10.3173
775 194 1 -14.4724 -4.7971 -9.5229
776 194 1 -15.3102 -4.7335 -10.2736
777 195 1 -15.7987 -2.2223 14.9193
778 195 1 -15.0034 -2.7762 14.295
779 195 1 -15.8755 -1.7396 15.6159
780 195 1 -16.8468 -2.1009 15.7613
781 196 1 13.7366 -15.8803 7.7379
782 196 1 14.2738 -16.1778 7.4994
783 196 1 12.7512 -16.6526 6.8926
784 196 1 12.6345 -16.6468 7.8168
785 197 1 -16.7339 14.9997 15.3805
786 197 1 -16.1097 14.1222 15.6257
787 197 1 -17.0734 14.352 15.6758
788 197 1 -16.5893 14.2752 15.497
789 198 1 -16.3889 -19.9924 -9.1532
790 198 1 -16.0012 -19.3421 -8.8206
791 198 1 -16.9957 -20.4541 -8.5223
792 198 1 -16.2281 -21.4004 -7.5392
793 199 1 10.0746 18.5259 -9.0125
794 199 1 10.7154 19.4773 -8.6519
795 199 1 9.2358 18.6537 -9.3708
796 199 1 8.3613 18.6484 -9.9236
797 200 1 13.4857 14.4015 -13.0766
798 200 1 13.6567 15.2549 -12.9774
799 200 1 12.8046 13.5511 -12.852
800 200 1 13.5434 12.6141 -11.893
801 201 1 13.5228 22.2228 -8.6009
802 201 1 12.8921 21.3731 -8.4076
803 201 1 12.6856 22.4503 -9.3003
804 201 1 12.5439 22.8438 -10.1277
805 202 1 -7.8078 5.7084 -18.058
806 202 1 -6.9565 5.6517 -17.772
807 202 1 -7.2786 4.735 -18.4985
808 202 1 -6.5649 4.452 -17.8255
809 203 1 -5.9389 -9.8953 0.0571
810 203 1 -6.0038 -10.3552 0.2293
811 203 1 -4.9558 -10.4183 -0.1371
812 203 1 -5.3269 -10.9334 -0.7801
813 204 1 2.1163 22.2551 18.9584
814 204 1 1.5869 22.1869 18.7649
815 204 1 1.1679 22.7675 18.2339
816 204 1 1.5948 22.816 18.7002
817 205 1 21.3712 16.6822 22.7976
818 205 1 20.5955 17.2716 22.1047
819 205 1 21.1472 16.8061 23.1845
820 205 1 21.6439 16.3297 23.1784
821 206 1 13.1714 -22.0991 -20.5176
822 206 1 13.5021 -22.0938 -19.8644
823 206 1 13.4871 -21.9471 -20.8664
824 206 1 13.2994 -21.0386 -20.235
825 207 1 16.7935 -10.7818 16.8375
826 207 1 17.0045 -11.094 16.7232
827 207 1 16.3691 -10.1395 15.9908
828 207 1 16.4324 -10.4487 16.6285
829 208 1 -6.3858 -11.692 -9.1367
830 208 1 -6.1209 -12.2769 -8.9539
831 208 1 -7.2601 -11.0078 -9.7804
832 208 1 -7.7884 -10.4255 -10.4637
833 209 1 20.1331 -4.0297 22.9874
834 209 1 20.0689 -3.3009 22.3321
835 209 1 20.0001 -5.0137 22.5354
836 209 1 19.0351 -5.7979 23.0709
837 210 1 16.9532 18.1126 14.3694
838 210 1 16.6951 17.7026 14.0797
839 210 1 17.1678 17.7966 15.2029
840 210 1 16.6746 18.3513 15.0055
841 211 1 14.8551 9.2264 -18.5962
842 211 1 14.5415 8.8477 -18.3484
843 211 1 14.2818 9.6105 -19.0353
844 211 1 13.6813 9.4794 -20.0306
845 212 1 -7.0233 -20.5517 -0.4725
846 212 1 -7.2503 -19.5701 -1.0989
847 212 1 -7.7022 -20.6216 -0.2708
848 212 1 -8.0663 -20.6285 0.2524
849 213 1 18.7236 14.3688 4.9312
850 213 1 18.5771 14.8163 4.4023
851 213 1 19.6203 15.3326 4.2935
852 213 1 18.7712 16.1022 4.0081
853 214 1 8.9495 -18.9217 -14.0407
854 214 1 9.7731 -19.5072 -13.9236
855 214 1 8.5929 -19.0041 -13.6212
856 214 1 9.1659 -19.8553 -13.3519
857 215 1 12.5093 -0.7643 11.7883
858 215 1 11.5979 -0.071 11.9476
859 215 1 12.5853 -1.2437 11.1523
860 215 1 13.5146 -1.9821 10.8307
861 216 1 -19.4576 0.9859 5.2219
862 216 1 -19.7931 0.291 4.8535
863 216 1 -20.3446 0.7397 6.1566
864 216 1 -19.4833 -0.0104 5.4996
865 217 1 -13.0581 8.5826 -22.7724
866 217 1 -12.6584 9.2287 -23.4717
867 217 1 -13.5816 8.1155 -22.5059
868 217 1 -13.4449 7.9863 -21.5117
869 218 1 11.2727 22.0073 11.8255
870 218 1 11.8774 22.6617 11.0053
871 218 1 11.4559 22.4374 11.5378
872 218 1 11.6064 21.5466 10.8948
873 219 1 5.4229 -1.2117 -19.501
874 219 1 4.8702 -0.886 -18.9447
875 219 1 4.6157 -1.8951 -19.8904
876 219 1 4.1969 -1.2406 -19.2616
877 220 1 1.3176 13.1049 -10.6209
878 220 1 0.6255 13.7433 -10.6253
879 220 1 0.9354 13.4357 -10.2474
880 220 1 1.3914 14.1466 -9.7966
881 221 1 -19.767 -8.644 5.9372
882 221 1 -20.361 -8.3693 5.7369
883 221 1 -19.2216 -7.6491 5.8539
884 221 1 -19.633 -8.282 6.3908
885 222 1 -6.9531 -12.9523 7.7109
886 222 1 -6.5331 -12.3005 6.9612
887 222 1 -7.7022 -13.3446 8.5555
888 222 1 -7.4222 -12.8455 8.9371
889 223 1 8.0737 4.6043 -14.0537
890 223 1 8.6748 4.6906 -14.8674
891 223 1 8.8122 4.2053 -13.9197