LAMMPS data file via write_data, version 7 Jan 2022, timestep = 80842034

3000 atoms
1 atom types
2700 bonds
1 bond types
2400 angles
1 angle types
2100 dihedrals
1 dihedral types

-23.471697 23.471697 xlo xhi
-23.471697 23.471697 ylo yhi
-23.471697 23.471697 zlo zhi

Masses

1 14

Pair Coeffs # lj/mdf

1 0.0912 3.95

Bond Coeffs # harmonic

1 450 1.54

Angle Coeffs # harmonic

1 62.1 114

Dihedral Coeffs # opls

1 1.411 -0.27084 3.143 0

Atoms # molecular

484 49 1 -13.910921500778734 -17.12579148610227 -16.135833839446107 2 6 0
2252 226 1 -15.272601602861243 -19.679471205779347 -19.255215007545516 2 9 7
579 58 1 -22.618296312316467 -15.76946153487458 -21.364092751216194 1 -1 11
2256 226 1 -18.236566553164046 -15.670762806422493 -19.97753449233813 2 9 7
1781 179 1 -22.350043776288715 -14.443725224182149 -17.63304801903489 -3 8 1
485 49 1 -13.631320587856374 -15.606977672265351 -16.050702579416978 2 6 0
577 58 1 -22.47714819449826 -13.190530594833346 -20.910270152405165 1 -1 11
1792 180 1 -23.40278733047807 -19.800505711435974 -20.881132892407358 -15 -4 -5
578 58 1 -22.16240177590532 -14.312084975392088 -21.910250500212797 1 -1 11
2343 235 1 -16.37485985324256 -23.23868107201438 -16.820552317031893 -3 -13 0
1782 179 1 -21.09655842126484 -14.624835695166318 -16.77156899186383 -3 8 1
2260 226 1 -14.59988771879684 -13.31684016562304 -21.487902289116604 2 9 7
181 19 1 -19.919180724110163 -20.28997211633557 -17.226740436818456 -3 12 8
2257 226 1 -17.689575570217723 -15.566600982181104 -21.48696821772897 2 9 7
580 58 1 -21.73078482850717 -16.758030506120615 -22.132785256732163 1 -1 11
483 49 1 -12.713014123332561 -17.92591063416638 -16.48311871764512 2 6 0
2251 226 1 -15.721832626300865 -20.4885807386282 -20.466248759033896 2 9 7
2255 226 1 -18.054163608709125 -16.985054123688375 -19.238901340737367 2 9 7
2851 286 1 -11.770423262167933 -22.369077333421803 -20.217787476702572 2 -5 1
2258 226 1 -16.94767172787076 -14.281383169113735 -21.762089774638287 2 9 7
2254 226 1 -16.647134002307595 -17.460508875801096 -18.932183382836037 2 9 7
2259 226 1 -15.659827635296084 -14.13759151573206 -20.88337281693349 2 9 7
2253 226 1 -16.498338500995818 -18.9723019522117 -18.599220245893402 2 9 7
182 19 1 -21.180817515950555 -20.824384063390564 -16.43233461027499 -3 12 8
2852 286 1 -12.914798172442241 -23.29176804742462 -19.547291198935714 2 -5 1
2502 251 1 -20.450817707602397 -21.72848026248335 -22.747606209472288 12 2 5
1791 180 1 -23.36273754691603 -20.941906933163768 -19.88923704187772 -15 -4 -5
183 19 1 -22.148549586140387 -19.63756379273083 -16.13347171508513 -3 12 8
2501 251 1 -20.083417092156242 -22.95452551575813 -21.94336536090334 12 2 5
2344 235 1 -16.22607582162153 -22.24062456940962 -15.723429655898444 -3 -13 0
1783 179 1 -21.134258117661396 -15.764620939284708 -15.734191831368559 -3 8 1
2348 235 1 -13.637304027629547 -21.668256037194066 -11.939972263812145 -3 -13 0
2350 235 1 -14.092252815266589 -19.13568013724119 -11.561519162828583 -3 -13 0
2820 282 1 -15.674126490930025 -16.68981981085 -8.45927743287523 -3 -24 -7
1788 179 1 -19.766354193280048 -19.06341365993215 -11.493826351665474 -3 8 1
1787 179 1 -18.59501492111096 -18.297830852185424 -12.17461365142615 -3 8 1
489 49 1 -13.765934705010638 -13.56294681532802 -12.925910668693735 2 6 0
2347 235 1 -14.706616564252803 -21.581078123963984 -13.051675890672433 -3 -13 0
488 49 1 -13.073274677717084 -13.281843336563792 -14.291890561120706 2 6 0
370 37 1 -18.32053902623972 -23.145091259912185 -10.597561799863872 -2 12 0
1963 197 1 -20.974302388762514 -13.10564626120965 -9.583176331234236 5 12 -4
2345 235 1 -14.772716802842538 -21.730460847627814 -15.634704006859767 -3 -13 0
2346 235 1 -14.030466714024499 -22.07279121538699 -14.295959919563149 -3 -13 0
1964 197 1 -21.277076262667716 -12.6237019861308 -10.982659173693246 5 12 -4
1790 179 1 -20.35321634050221 -19.74340905422779 -9.243014076923474 -3 8 1
487 49 1 -14.07052582595637 -13.171744807333274 -15.431367583606768 2 6 0
2349 235 1 -13.056245599476437 -20.26174306510939 -11.66751771260422 -3 -13 0
1789 179 1 -19.352738225391153 -19.97098680301602 -10.29992683256248 -3 8 1
490 49 1 -12.864722282560152 -13.52638713639726 -11.646918563519696 2 6 0
184 19 1 -23.311224182753396 -20.178274255893466 -15.215228341433072 -3 12 8
1785 179 1 -19.74247779830152 -17.001074781685237 -13.97375837454577 -3 8 1
1784 179 1 -19.975665552245538 -15.63880814185094 -14.72050407625218 -3 8 1
1961 197 1 -21.898842224836738 -14.810176239288044 -7.829688768325456 5 12 -4
1786 179 1 -18.97364225399807 -16.93031945326257 -12.69139682660734 -3 8 1
1962 197 1 -21.53546834936893 -14.540032046611719 -9.321338571270408 5 12 -4
486 49 1 -14.617817843943408 -14.592080694258796 -15.562276628908412 2 6 0
2816 282 1 -18.222568023828018 -17.80942807494181 -5.515333503553761 -3 -24 -7
1819 182 1 -22.245905426235236 -22.987008570433222 -6.588671036686476 5 5 -3
1209 121 1 -13.592880634578314 -14.11403599611109 -2.595149901881778 -7 -10 6
2814 282 1 -17.002684162695402 -19.997462447816844 -5.489209539671331 -3 -24 -7
1000 100 1 -22.021937785134995 -12.17402666161527 -4.543165767233532 -8 16 -6
2028 203 1 -18.502571759884425 -13.434926066161337 -2.6466555475956737 4 4 1
2818 282 1 -17.5813509061257 -15.975167913145542 -7.179431811758072 -3 -24 -7
2029 203 1 -18.109411263783926 -13.287394025465433 -4.096871079189879 4 4 1
1205 121 1 -16.458328995323544 -18.319580869160546 -1.8502009744860635 -7 -10 6
2021 203 1 -21.385157743402605 -21.194252107322463 -2.48585834769662 4 4 1
2741 275 1 -22.943034104362397 -17.83331154288528 -6.134586973366902 5 5 -3
2817 282 1 -17.185612324162147 -16.75849094698601 -5.909014067408577 -3 -24 -7
1207 121 1 -15.451688057568013 -15.90433182762021 -2.470376809528401 -7 -10 6
2815 282 1 -17.993739080640584 -19.128459110825116 -6.226826670506692 -3 -24 -7
2812 282 1 -16.638939826820906 -22.532884959178524 -5.519534457466965 -3 -24 -7
2813 282 1 -16.50142944139984 -21.221178502331135 -6.240273760904318 -3 -24 -7
2811 282 1 -15.443902051339867 -22.959659078428118 -4.692939301307376 -3 -24 -7
2026 203 1 -20.515613452235403 -15.101633577863495 -3.089336705142032 4 4 1
1206 121 1 -16.018487844251926 -16.91993062022387 -1.446074612893719 -7 -10 6
2023 203 1 -20.922262978195736 -18.858753567243372 -2.0930776779308378 4 4 1
2025 203 1 -21.30391440063183 -16.283112165767122 -2.6334019588272106 4 4 1
2024 203 1 -20.31762884332583 -17.44940803595767 -2.369070919482384 4 4 1
1820 182 1 -22.577567420890734 -21.442242710441285 -6.696369756152789 5 5 -3
2030 203 1 -16.761015274849303 -12.611852377799849 -4.371662124504895 4 4 1
2027 203 1 -19.199112932724137 -14.836765495847864 -2.3706740860596573 4 4 1
2022 203 1 -20.825188358982157 -19.936678165983 -3.1181995107062503 4 4 1
1210 121 1 -13.689926386394314 -14.307461525529998 -4.091628870593002 -7 -10 6
1204 121 1 -16.409208502502924 -19.134608892329066 -0.5912820223118965 -7 -10 6
1208 121 1 -14.360905206891838 -15.203848476668309 -1.7917173764445067 -7 -10 6
1270 127 1 -13.065428016718608 -18.76714257777861 -4.4461528770754395 -6 18 -8
1269 127 1 -12.914054538478915 -20.252531846155133 -4.0141112528410225 -6 18 -8
1203 121 1 -16.470200909954446 -20.691404308710478 -0.8005636827314776 -7 -10 6
1818 182 1 -21.38351839416133 -23.39681726213017 -5.38358625713995 5 5 -3
2819 282 1 -16.333150632356798 -15.497229395564469 -7.789388075339822 -3 -24 -7
967 97 1 -15.99348700538191 -16.871931436538187 3.4621456745794132 0 5 -3
1669 167 1 -21.560711292235087 -22.164327180196167 2.1441679678826917 4 8 4
1668 167 1 -21.71330032547206 -20.76573567461027 1.3975797201676974 4 8 4
969 97 1 -17.950386456030284 -15.990472811726272 1.969911665964677 0 5 -3
1114 112 1 -14.272503758679369 -12.893811727405138 7.309516990192407 -4 1 6
964 97 1 -12.511638676954297 -15.452696001668395 3.7661638755308777 0 5 -3
1664 167 1 -19.988046308946608 -18.273470876596168 4.863220447048909 4 8 4
399 40 1 -22.7828596803637 -13.399732712137274 3.255103856834555 -1 11 -5
1670 167 1 -20.663013895264836 -23.158161253675676 1.3785882887454772 4 8 4
2181 219 1 -12.167652579836066 -22.57948127394474 6.431694485226429 0 -3 4
965 97 1 -13.838367078929231 -15.711435907745004 3.089387013347443 0 5 -3
1202 121 1 -16.785519389500028 -21.51354292472908 0.3709808422297986 -7 -10 6
1113 112 1 -14.877242185283846 -12.681670196590657 5.893218064978449 -4 1 6
2182 219 1 -13.150512771776713 -22.050658039703688 5.344230861926685 0 -3 4
2183 219 1 -14.390054027732258 -22.8785138670758 4.976666682086339 0 -3 4
1665 167 1 -20.813348522941485 -18.84096947427847 3.6655055099379092 4 8 4
2184 219 1 -15.359613193801025 -22.95100591195083 6.082391531548218 0 -3 4
1667 167 1 -20.367957645153943 -20.077168294803805 1.4318537406497402 4 8 4
1663 167 1 -20.541571504800487 -17.11244391571484 5.670863217749622 4 8 4
968 97 1 -16.685984350037064 -16.870220712059528 2.095752670223135 0 5 -3
970 97 1 -17.61645366982327 -14.466864317513748 1.9999061205037103 0 5 -3
1666 167 1 -20.01565049791929 -19.819121716382117 2.8683486332970367 4 8 4
966 97 1 -14.49114532726393 -17.039835681693177 3.539843321132131 0 5 -3
1111 112 1 -17.21320795305239 -13.502095576297581 5.821693079633062 -4 1 6
2185 219 1 -15.933293792991437 -21.51169106826853 6.4008390355817735 0 -3 4
1112 112 1 -16.36478625047345 -12.291891962757 5.9264416020412884 -4 1 6
400 40 1 -21.603929241902676 -13.987217909819462 4.066378308646607 -1 11 -5
1662 167 1 -19.798977168129575 -16.93766144578708 6.9292494779412195 4 8 4
333 34 1 -22.200550843205793 -20.91757999003551 6.9543446360134284 0 3 -4
2186 219 1 -16.986841075667456 -21.35011731686264 7.513778730091223 0 -3 4
1071 108 1 -18.83625163153396 -22.714520788313283 4.734528258087574 1 -5 -10
332 34 1 -21.97294646303296 -22.3701589714852 7.368589439141471 0 3 -4
1201 121 1 -16.97457601303682 -23.032586358367492 0.19247324250580608 -7 -10 6
334 34 1 -23.467479788454746 -20.548905349700618 6.118974955176658 0 3 -4
1661 167 1 -19.972559767565592 -15.691092453553896 7.781088299254592 4 8 4
929 93 1 -21.284284361972105 -19.64468233378583 11.983806250971586 1 -4 3
2293 230 1 -18.85289741789144 -15.758437390900022 14.932643574238359 -2 -5 12
1695 170 1 -20.017998635894656 -11.814346311704874 14.603651769361205 11 -11 18
930 93 1 -19.9656542436698 -20.179624442050873 11.387410711341193 1 -4 3
2190 219 1 -15.310145804421467 -16.73451670536362 9.426011517472762 0 -3 4
1119 112 1 -13.53382207161983 -15.042204675530355 12.001558288872097 -4 1 6
686 69 1 -12.22977319598742 -17.9215954113013 9.010936501664313 1 12 -5
1692 170 1 -20.690949571592643 -13.642791319572636 12.099908799998257 11 -11 18
1116 112 1 -13.230998275960621 -12.15338085273548 9.307852635534099 -4 1 6
2188 219 1 -16.210146852406485 -19.064484555620318 8.767842557879847 0 -3 4
1117 112 1 -14.069489451940049 -13.074466474904725 10.230681048741605 -4 1 6
681 69 1 -12.455181066578469 -23.14974209059953 11.040781580525822 1 12 -5
682 69 1 -13.317773752268037 -22.298780363887502 10.083148860537278 1 12 -5
2291 230 1 -18.172070143855954 -18.30493093057504 14.788457403605891 -2 -5 12
2189 219 1 -16.365433152473067 -17.632104345528106 8.725575346308371 0 -3 4
1118 112 1 -13.146650267626285 -13.702889117360137 11.319605610293351 -4 1 6
927 93 1 -22.743638783548285 -17.72403380319499 13.022978783034315 1 -4 3
2292 230 1 -18.378033416454734 -16.991222835391167 14.082300807094434 -2 -5 12
2692 270 1 -14.090714480508876 -20.325763594830615 15.459828081698927 -3 -11 1
683 69 1 -13.008321738910478 -20.760771802900013 10.282352681208012 1 12 -5
928 93 1 -21.355713675527465 -18.175733864096753 12.571199182504081 1 -4 3
2294 230 1 -20.274690673992424 -15.950023592014702 15.435548139815443 -2 -5 12
1691 170 1 -21.812457220693148 -14.04455633761275 11.1670813860169 11 -11 18
1120 112 1 -12.793174187398757 -15.353043389736264 13.283420443015839 -4 1 6
1693 170 1 -20.338807793877102 -12.185746962130619 12.048031599435511 11 -11 18
331 34 1 -21.051479196269696 -22.537281135902035 8.522948058998674 0 3 -4
2187 219 1 -17.255435540545456 -19.910638503298568 7.903578787395407 0 -3 4
2503 251 1 -21.21259488108109 -21.961879643230784 22.913254595251132 12 2 4
2297 230 1 -21.51104855785741 -17.14206172281184 18.852836217847237 -2 -5 12
2299 230 1 -22.9019392727719 -18.250329181100092 20.858598631111146 -2 -5 12
517 52 1 -14.689638659514321 -14.188489080231687 18.78407842657107 10 5 0
2507 251 1 -19.816495854412377 -23.338138897309058 18.074596043192912 12 2 4
96 10 1 -13.445208266765261 -15.900868604234224 22.12720144678517 -2 -10 16
2078 208 1 -15.280641323768076 -22.128716069855194 20.430764669119117 -1 14 -4
511 52 1 -20.572511514900224 -13.153233406721537 21.061167918257194 10 5 0
100 10 1 -18.032369476622844 -17.790247016672936 21.729050978648516 -2 -10 16
516 52 1 -15.246301779423415 -12.764701894885613 18.974999340456108 10 5 0
513 52 1 -18.282102175983358 -12.93052259102003 19.65485655451314 10 5 0
514 52 1 -17.74771349585814 -13.060029442897001 18.202727720261954 10 5 0
2504 251 1 -20.28817368161443 -21.855058473290505 21.65899774187941 12 2 4
2298 230 1 -22.77065178080498 -17.193478903876404 19.69893811860007 -2 -5 12
99 10 1 -16.98773535152782 -17.320540922838113 20.740028543038882 -2 -10 16
519 52 1 -13.379143826600558 -15.463617562789194 16.98295017412499 10 5 0
518 52 1 -14.455733622636423 -14.456326412034057 17.247083786288005 10 5 0
97 10 1 -14.612661028871083 -16.926738817300283 21.856304367029164 -2 -10 16
515 52 1 -16.422165901748425 -12.259557348185906 17.99152962017157 10 5 0
2693 270 1 -12.764267487112757 -20.637594535784533 16.19538529020618 -3 -11 1
2077 208 1 -13.84711437824662 -21.535636399503357 20.75869082908682 -1 14 -4
98 10 1 -15.87459498510679 -16.335568249950327 21.21280284347825 -2 -10 16
95 10 1 -12.664017785481859 -15.879241160757548 23.397256101683894 -2 -10 16
2505 251 1 -20.709417219613346 -22.59688681874369 20.360909442618933 12 2 4
512 52 1 -19.773508151800556 -13.356449034429762 19.749006531735134 10 5 0
2080 208 1 -16.378496575200913 -22.991150503971713 18.251884592884537 -1 14 -4
1391 140 1 -12.890123996762988 -12.124435858525201 22.34369601965219 -2 -8 -11
2509 251 1 -20.431732886365186 -20.98300458792576 17.14255617382134 12 2 4
2079 208 1 -15.27980439953715 -22.18724007807099 18.88414494203706 -1 14 -4
2296 230 1 -21.61503576401418 -16.334595994424415 17.602361544517592 -2 -5 12
2075 208 1 -11.904756716973136 -21.18441555552969 22.42943388986275 -1 14 -4
2508 251 1 -20.12601171696711 -22.43744612327331 16.831223340015693 12 2 4
2295 230 1 -20.29487960409594 -16.188940474951547 16.942216780195974 -2 -5 12
2300 230 1 -23.040155461408535 -19.709145928531882 20.42772268786469 -2 -5 12
2510 251 1 -20.855906278214263 -20.112168560429584 15.948394822688199 12 2 4
2076 208 1 -13.410662435086211 -21.457066744873977 22.270963717216222 -1 14 -4
520 52 1 -12.008016931486853 -14.987402679360498 17.319640231259797 10 5 0
2506 251 1 -19.517272251852116 -22.636608256927634 19.434068728622094 12 2 4
2691 270 1 -14.78368507469134 -18.950889739991364 15.668691377621364 -3 -11 1
267 27 1 -21.461465769750493 -4.015216939019402 -19.720799216227544 4 -4 2
573 58 1 -23.161887313362694 -9.270184321536405 -19.0372292002505 1 -1 11
572 58 1 -23.260807506325083 -8.322640800004077 -20.181982520431355 1 -1 11
359 36 1 -17.165589011059364 -5.226740893186158 -15.985163632415436 -11 -6 -12
2305 231 1 -19.12781758513863 -8.968936013614654 -18.700708716969885 -1 -1 -1
266 27 1 -20.70416951339615 -4.878456396967911 -20.789155474902014 4 -4 2
2110 211 1 -13.553571021693942 -7.801248595920578 -17.743683441408045 3 -2 11
262 27 1 -15.999069936301185 -4.346114916624721 -20.460871842520405 4 -4 2
571 58 1 -22.398462129506697 -8.713526601020375 -21.43807659919212 1 -1 11
2307 231 1 -18.504333858142484 -10.704833009302364 -16.898254696644685 -1 -1 -1
358 36 1 -16.31534928021342 -4.063544025693928 -16.58947341554824 -11 -6 -12
265 27 1 -19.6770019430509 -4.117694899728243 -21.71588105803281 4 -4 2
270 27 1 -22.68874196838599 -6.537944040879 -16.888001808037878 4 -4 2
264 27 1 -18.415939562300004 -3.582247936588612 -20.91693891018669 4 -4 2
268 27 1 -22.265330937707017 -4.981990596163676 -18.797821972791823 4 -4 2
2302 231 1 -17.61187803304258 -10.728247827603008 -22.03253875776448 -1 -1 -1
2304 231 1 -18.781950715695576 -10.018974609938399 -19.871204363629012 -1 -1 -1
261 27 1 -15.714890771858306 -2.851237454980154 -20.29590255760739 4 -4 2
360 36 1 -17.677638924829115 -6.301716740285252 -17.016686130355744 -11 -6 -12
269 27 1 -21.617088903253283 -5.821910349739317 -17.80723438374901 4 -4 2
263 27 1 -17.38589280609873 -4.70277146256453 -21.12412172676243 4 -4 2
2109 211 1 -13.408554422202208 -6.435748196635569 -17.18723017775976 3 -2 11
2303 231 1 -17.858101461191623 -9.619971724676288 -21.034732852102163 -1 -1 -1
2821 283 1 -19.29111908378066 -2.131592792415348 -15.860790608402962 -9 7 10
2822 283 1 -18.99886127345373 -0.6880025040017024 -16.243629774800528 -9 7 10
356 36 1 -14.625215514470776 -2.2685655472939326 -16.44510182411372 -11 -6 -12
2301 231 1 -18.786446768357287 -11.150167373902088 -22.915555815104035 -1 -1 -1
2306 231 1 -19.601402551589796 -9.773545765931996 -17.498410578750505 -1 -1 -1
2975 298 1 -12.067713928062133 -5.181004674671755 -22.659632885520807 6 -10 -3
355 36 1 -14.055100619937054 -0.9412156256119654 -15.907282853367827 -11 -6 -12
574 58 1 -22.788732932563533 -10.696827234352448 -19.562699789463903 1 -1 11
833 84 1 -18.25091378264492 -8.871881261570316 -9.116555218406667 1 -3 12
142 15 1 -13.810173310793264 -8.016431583720145 -9.685445988659984 -6 -1 1
837 84 1 -19.107170736607426 -5.214064546342232 -11.892883778176872 1 -3 12
2309 231 1 -17.239930324542243 -11.209259919634665 -14.758201243599006 -1 -1 -1
143 15 1 -13.897008945240593 -9.420546638483174 -10.366776278709382 -6 -1 1
994 100 1 -23.029252381260868 -7.215529022292679 -8.022901570992317 -8 16 -6
141 15 1 -13.033406019112697 -7.793835197397384 -8.345778323360875 -6 -1 1
834 84 1 -17.490681472285374 -8.688036098855457 -10.479849423052793 1 -3 12
838 84 1 -20.46702155883667 -4.690879266990001 -12.402949810215604 1 -3 12
1966 197 1 -21.530229197688662 -10.511926608524917 -12.542628942963308 5 12 -4
835 84 1 -17.50938654031214 -7.257446137451588 -10.957940857504672 1 -3 12
2102 211 1 -13.143249443247154 -3.770666909820502 -11.264765340755568 3 -2 11
840 84 1 -22.435565906391872 -4.664102572815821 -13.990910053072836 1 -3 12
2880 288 1 -18.418149468991228 -1.701768019435641 -9.080453495152828 -18 -13 0
2310 231 1 -16.54045512285585 -10.628194743664217 -13.487358936962861 -1 -1 -1
836 84 1 -18.897917779258584 -6.685292799899688 -11.32212112960707 1 -3 12
2308 231 1 -18.24111614627363 -10.231772529621498 -15.447409296772944 -1 -1 -1
1967 197 1 -22.152464983073635 -9.061253716462653 -12.491170759042259 5 12 -4
1965 197 1 -21.094480683055227 -11.073768520812003 -11.184254342388282 5 12 -4
832 84 1 -17.976735910427767 -10.332781105706562 -8.652990579281733 1 -3 12
2879 288 1 -18.354723764564266 -3.1732237146285236 -8.75927941398552 -18 -13 0
1283 129 1 -12.555764088270754 -1.1222232642053522 -8.033872334835138 -2 -13 -7
144 15 1 -12.497947094700299 -10.015372281296624 -10.610606663614316 -6 -1 1
839 84 1 -21.250599575081548 -5.445162285587179 -13.469876495263149 1 -3 12
992 100 1 -22.430823268271936 -4.606148446581538 -8.06637149124931 -8 16 -6
2103 211 1 -12.38104114877596 -3.800074346489743 -12.625085283612417 3 -2 11
2101 211 1 -14.704342936610514 -3.6653490900395687 -11.331550703407386 3 -2 11
991 100 1 -21.88033117501046 -3.344944398439222 -8.672844115215177 -8 16 -6
995 100 1 -22.76293302416291 -8.538104822474434 -8.756901212594276 -8 16 -6
993 100 1 -22.35507088877685 -5.968395641406935 -8.786850658415577 -8 16 -6
354 36 1 -13.207171360009193 -0.7917849996084075 -14.597026946633433 -11 -6 -12
2107 211 1 -12.487458899521853 -7.374141429495531 -14.916274041366208 3 -2 11
353 36 1 -14.026571123293376 -0.9549541211594903 -13.351830678734027 -11 -6 -12
351 36 1 -15.728239062444661 -0.22115760221499758 -11.612464403947627 -11 -6 -12
2108 211 1 -13.534446624368428 -6.44544632153454 -15.628729844256915 3 -2 11
357 36 1 -15.680125905002779 -3.0335810964643537 -15.596752491185702 -11 -6 -12
2875 288 1 -19.44643324028075 -4.196336875891101 -4.7003961677277895 -18 -13 0
424 43 1 -16.787479744094504 -6.822592520535277 -2.5781527715609633 -3 -12 2
2874 288 1 -20.87260712967135 -4.498010425658409 -4.067464116610892 -18 -13 0
2876 288 1 -19.159196919750794 -4.9146862705211145 -5.961970281135916 -18 -13 0
2878 288 1 -17.726587911551746 -3.277202182098395 -7.320468226269615 -18 -13 0
2872 288 1 -23.437765776960745 -4.234794414660972 -4.3353510192651195 -18 -13 0
831 84 1 -18.636003542526307 -10.753065384732668 -7.31119009670588 1 -3 12
421 43 1 -20.274845857606064 -8.579216984873796 -3.2459129257497255 -3 -12 2
430 43 1 -12.631681811088209 -10.412693494231693 -5.584925278372812 -3 -12 2
425 43 1 -15.308555210344426 -7.1058090233217515 -2.1777954559609807 -3 -12 2
2873 288 1 -21.99845918717394 -3.700496249720807 -4.6755047773268315 -18 -13 0
2193 220 1 -18.088861766162626 -1.320954551631152 -0.9003687112465394 -3 -1 -3
427 43 1 -13.377140641870934 -8.758911689209638 -2.9851631086259034 -3 -12 2
423 43 1 -17.81582964619575 -8.010941838749131 -2.379194051009597 -3 -12 2
2877 288 1 -17.728357167201107 -4.677020045069022 -6.5808171385688174 -18 -13 0
429 43 1 -13.9670358117648 -10.331666306308763 -4.939540602457394 -3 -12 2
2315 232 1 -23.134866872980805 -0.2973094094649728 -0.38190663468786484 8 -2 -9
2191 220 1 -17.054724325101404 -3.4519272344620022 -1.6640655918458331 -3 -1 -3
288 29 1 -13.609532289492568 -2.5328945975591277 -3.1501826305213134 12 3 5
289 29 1 -12.18814856171539 -3.1427542013147773 -2.9894807104939436 12 3 5
428 43 1 -13.923934547555668 -10.148225256646356 -3.380440969069728 -3 -12 2
426 43 1 -14.494715913782258 -7.690311052994201 -3.338927565219723 -3 -12 2
2192 220 1 -17.491390157502313 -1.9855174045554573 -2.1341281501622933 -3 -1 -3
290 29 1 -11.863844020053433 -4.250726353918781 -4.035818488812546 12 3 5
422 43 1 -18.884363808886462 -8.074462064240738 -3.4735914012596076 -3 -12 2
287 29 1 -13.459075367472382 -1.0390767593027699 -2.6257440088775743 12 3 5
2314 232 1 -23.10706489678702 -1.8178062889634339 -0.07709296487637153 8 -2 -9
1282 129 1 -14.00963882912537 -0.7331587028117911 -7.810534870480109 -2 -13 -7
998 100 1 -23.036078804873064 -10.86259486481902 -6.722677921285227 -8 16 -6
1281 129 1 -14.601718603912632 -1.88238307863495 -6.9105503484903466 -2 -13 -7
999 100 1 -23.11868166621583 -11.299664180027424 -5.248646983839171 -8 16 -6
2140 214 1 -16.565678668254247 -0.7311873250420118 3.113423977279576 -3 2 13
1254 126 1 -20.893153521152673 -5.759107781864575 3.8493147170336757 -3 1 -1
2333 234 1 -13.649693119832394 -9.04903146687555 1.0815443621895553 4 6 -10
2755 276 1 -17.05949668166777 -4.916406291547388 6.91716222891731 -15 -7 14
2759 276 1 -14.765268799896138 -8.523325036850663 4.97859024667632 -15 -7 14
2760 276 1 -13.500222790271145 -9.316021163954314 4.799738979408473 -15 -7 14
1251 126 1 -20.484931317478342 -5.550101749061975 0.7871409587954019 -3 1 -1
2340 234 1 -21.664478100473897 -10.09162663385286 1.607909679711367 4 6 -10
2753 276 1 -17.417670973025196 -2.3513934575100257 7.26633883901155 -15 -7 14
1779 178 1 -15.13149234634498 -5.3929750879561285 1.7014861604846003 -4 -5 -8
2311 232 1 -21.339056970137843 -1.4184700821203273 3.291965537422693 8 -2 -9
2313 232 1 -22.60144857194067 -2.305632460250022 1.2953800720783777 8 -2 -9
2312 232 1 -21.340657561787413 -1.5944241315752097 1.7343718596898363 8 -2 -9
2338 234 1 -19.07246695052894 -10.496077335337647 1.3749175333995527 4 6 -10
2758 276 1 -15.035707620942953 -8.243981064339778 6.45626719299485 -15 -7 14
1252 126 1 -19.44357163816106 -5.234068070230783 1.8834143373654513 -3 1 -1
1780 178 1 -15.759491242992409 -4.636485559710754 2.797785539701953 -4 -5 -8
2337 234 1 -17.64275459713006 -10.456259232183982 2.1062153120600637 4 6 -10
2339 234 1 -20.282243288824546 -10.396174035651004 2.325906722344832 4 6 -10
1778 178 1 -14.467896352766745 -4.321188777352656 0.744220399243443 -4 -5 -8
1253 126 1 -19.64332762268241 -6.144195375649897 3.0840111640544894 -3 1 -1
2722 273 1 -12.631913886816443 -0.7972915105557484 6.754201577261095 5 7 7
2754 276 1 -16.777053497368186 -3.4725793441636745 6.472610266386489 -15 -7 14
1255 126 1 -22.32965795573839 -6.17450345921752 3.4506992656612905 -3 1 -1
2756 276 1 -16.445985762795093 -6.0565986554355975 6.114240030526999 -15 -7 14
2757 276 1 -16.376536576418875 -7.42887117910896 6.77498873633131 -15 -7 14
2336 234 1 -16.452670313082265 -10.272825011646756 1.2424232259595465 4 6 -10
2334 234 1 -13.920365614920533 -10.62537891698356 1.2477254190605727 4 6 -10
1777 178 1 -13.734128509694443 -3.3745831627685163 1.6073629661707252 -4 -5 -8
1776 178 1 -12.922993949371685 -2.3255149653056537 0.8424839742284354 -4 -5 -8
2335 234 1 -15.293939629437556 -10.84224027126286 1.946935412808409 4 6 -10
1256 126 1 -23.225246062045784 -5.345281871424009 4.325664594487845 -3 1 -1
36 4 1 -22.606942811575074 -8.518555099185424 6.62697209360305 8 -4 4
35 4 1 -22.3778877339162 -7.41033261674867 7.655336623600312 8 -4 4
2332 234 1 -12.408824467999029 -8.6090623590859 0.2510112713060242 4 6 -10
1775 178 1 -12.528355864356392 -1.1378252587343578 1.7691204616173786 -4 -5 -8
34 4 1 -20.988522775456836 -6.759132758098392 7.616621052010965 8 -4 4
1694 170 1 -19.408777531840446 -11.56378396503324 13.18911026585842 11 -11 18
1952 196 1 -14.322308050298552 -9.725688139056674 14.391226550808769 -2 11 6
1490 149 1 -23.21325714298258 -0.1710772818726772 12.549512138951407 -4 7 -5
1822 183 1 -14.651206439577035 -0.5920307812466494 13.002909786177392 -8 10 10
777 78 1 -13.822210129855867 -7.3409206827953355 11.526516280506002 -5 -11 -8
776 78 1 -13.604125877636383 -6.461446217919811 10.264800334733213 -5 -11 -8
2751 276 1 -15.965215302944035 -2.8493196766017923 9.440536377432165 -15 -7 14
33 4 1 -21.19525006218855 -5.751666838416233 8.735934683537092 8 -4 4
780 78 1 -16.994231062466255 -9.481552536057306 10.334825758103534 -5 -11 -8
775 78 1 -12.985099415704985 -5.097757987015817 10.536681323176527 -5 -11 -8
1741 175 1 -21.576961275261848 -9.20421465843241 11.137642606764533 0 7 16
778 78 1 -14.647082723966676 -8.555062061939216 11.076625406270795 -5 -11 -8
31 4 1 -18.884358893021503 -6.555060915070466 9.64694551552591 8 -4 4
779 78 1 -16.06067328617032 -8.237788906457306 10.667232391418885 -5 -11 -8
32 4 1 -19.8146014397815 -5.384485316746337 9.256194070583804 8 -4 4
1489 149 1 -22.935854863016523 -0.22455459579954032 11.077154674679013 -4 7 -5
1951 196 1 -14.456286484459607 -11.264643447015786 14.413015308119741 -2 11 6
2752 276 1 -16.447217489203357 -1.7945257781336141 8.374481194626716 -15 -7 14
1247 125 1 -18.49432707145284 -0.08026850867615003 15.397792861739887 19 -8 -4
2721 273 1 -11.74278017177081 -1.3459133227387126 7.913713953621889 5 7 7
1954 196 1 -16.58219280771126 -9.266242044675877 15.35571005467367 -2 11 6
1250 125 1 -22.077118297454817 -1.8469605685158024 15.342035646969252 19 -8 -4
1696 170 1 -21.092481439780272 -10.754846361338258 14.857874098669924 11 -11 18
1742 175 1 -23.0397217092151 -9.381124353631693 11.56378313216491 0 7 16
1191 120 1 -15.098082225913728 -5.423738862568183 14.556371915752068 2 -6 -9
1248 125 1 -19.935941402227204 -0.48280601807685497 14.941002400645178 19 -8 -4
1824 183 1 -12.614103581828273 -0.03746352022428175 11.427903074874944 -8 10 10
1115 112 1 -14.321067025888189 -11.735416620047427 8.283347225189669 -4 1 6
1249 125 1 -20.603616762743723 -1.7447608822954068 15.647271160232343 19 -8 -4
1953 196 1 -15.096363638058417 -9.075804908812364 15.544061007184178 -2 11 6
1197 120 1 -16.85597792216342 -5.061946783742408 21.20662748299727 2 -6 -9
2972 298 1 -12.882624070787896 -2.196659603428942 23.239651142500488 6 -10 -4
1394 140 1 -12.452172160686004 -9.332604122440092 19.630108637367936 -2 -8 -11
2971 298 1 -12.90946868867234 -0.7141194246568163 22.972191224930693 6 -10 -4
1199 120 1 -17.212963829534456 -7.625700590351655 21.780172615422757 2 -6 -9
1957 196 1 -19.748225741086458 -7.013154230621643 16.4196695898574 -2 11 6
1697 170 1 -21.723592577103087 -10.907910364909345 16.246149656449536 11 -11 18
1958 196 1 -19.868944309695465 -7.090438873159102 17.964975097588567 -2 11 6
1198 120 1 -16.251502074791745 -6.467129565144542 21.37352674578902 2 -6 -9
1396 140 1 -12.434119535090556 -7.0122556403062966 19.310788883334002 -2 -8 -11
1698 170 1 -23.133718250829883 -10.455281601036525 16.111037194217545 11 -11 18
1393 140 1 -12.235133222621931 -10.648873044712474 20.442964692850808 -2 -8 -11
1196 120 1 -15.925613521366312 -3.8922219920285026 20.888996345092266 2 -6 -9
1955 196 1 -17.349589183550876 -8.278920067599719 16.17778142229528 -2 11 6
2006 201 1 -22.323673782379835 -1.56884107454486 21.206167418400636 6 6 -9
2007 201 1 -20.750952773146327 -1.5773566031573316 21.336048085663368 6 6 -9
1194 120 1 -15.917467577577822 -4.173538931375142 18.24939439150449 2 -6 -9
1956 196 1 -18.91062329756924 -8.27685799685323 16.024315746266094 -2 11 6
1959 196 1 -20.657254030595627 -5.932778183830292 18.559789992426992 -2 11 6
800 80 1 -12.352946578752894 -1.7591300418411004 18.25191564911825 6 -4 0
2003 201 1 -23.458459775006173 -4.950455431891039 22.927421966059505 6 6 -9
1395 140 1 -12.07350974999228 -8.041516283244315 20.33194278805063 -2 -8 -11
2008 201 1 -19.921582408288693 -0.2662583140856601 21.51261923537375 6 6 -9
1195 120 1 -15.140765181334237 -3.985686423370998 19.553376306528445 2 -6 -9
1193 120 1 -15.085999468631114 -4.440397300570079 16.99278475719337 2 -6 -9
1200 120 1 -16.9423652353819 -8.998767292505846 21.122500299082564 2 -6 -9
1960 196 1 -20.040628929927973 -4.542109278350909 18.44018508721362 -2 11 6
2005 201 1 -22.865838166673704 -3.030832372143458 21.301969376837402 6 6 -9
2004 201 1 -23.04156526929697 -3.452304900814098 22.754698061004202 6 6 -9